nqpoint: 1515   
npath: 15     
segment_nqpoint:
- 101
- 101
- 101
- 101
- 101
- 101
- 101
- 101
- 101
- 101
- 101
- 101
- 101
- 101
- 101
reciprocal_lattice:
- [  -0.28254161,  -0.08069968,   0.01166474 ] # a*
- [   0.28254161,  -0.08069968,   0.01166474 ] # b*
- [  -0.00000000,  -0.00000000,   0.15282859 ] # c*
natom: 8      
lattice:
- [    -1.769650875591755,    -6.195811489967705,     0.000000000000000 ] # a
- [     1.769650875591755,    -6.195811489967705,     0.000000000000000 ] # b
- [     0.000000000000000,     0.945798904897284,     6.543278527973584 ] # c
points:
- symbol: Ag # 1
  coordinates: [  0.000000000000000,  0.000000000000000,  0.000000000000000 ]
  mass: 107.868200
- symbol: Ag # 2
  coordinates: [  0.500000000000000,  0.500000000000000,  0.500000000000000 ]
  mass: 107.868200
- symbol: Bi # 3
  coordinates: [  0.240619203743652,  0.240619203743653,  0.739928970048948 ]
  mass: 208.980400
- symbol: Bi # 4
  coordinates: [  0.759380796256347,  0.759380796256348,  0.260071029951052 ]
  mass: 208.980400
- symbol: O # 5
  coordinates: [  0.663696861546966,  0.663696861546966,  0.511235047323346 ]
  mass: 15.999400
- symbol: O # 6
  coordinates: [  0.336303138453034,  0.336303138453034,  0.488764952676655 ]
  mass: 15.999400
- symbol: O # 7
  coordinates: [  0.161401958856205,  0.161401958856205,  0.118239479755150 ]
  mass: 15.999400
- symbol: O # 8
  coordinates: [  0.838598041143795,  0.838598041143795,  0.881760520244850 ]
  mass: 15.999400

phonon:
- q-position: [   -0.5579880,   -0.5579880,    0.4325263 ]
  distance:    0.0000000
  band:
  - # 1
    frequency:   -2.3183722906
  - # 2
    frequency:   -1.3348631021
  - # 3
    frequency:   -1.0262141995
  - # 4
    frequency:    1.1587724823
  - # 5
    frequency:    1.2084015805
  - # 6
    frequency:    1.5191814591
  - # 7
    frequency:    1.6112035333
  - # 8
    frequency:    2.1188413721
  - # 9
    frequency:    2.8787697542
  - # 10
    frequency:    3.8073912055
  - # 11
    frequency:    5.4131895870
  - # 12
    frequency:    5.5368400094
  - # 13
    frequency:    6.2213291655
  - # 14
    frequency:    6.2303171024
  - # 15
    frequency:    6.3784803318
  - # 16
    frequency:    7.8628234200
  - # 17
    frequency:    8.8584882358
  - # 18
    frequency:    9.3168839661
  - # 19
    frequency:   11.0974974815
  - # 20
    frequency:   12.0863888900
  - # 21
    frequency:   15.7529276119
  - # 22
    frequency:   15.9876484742
  - # 23
    frequency:   16.8885693661
  - # 24
    frequency:   18.0609703794

- q-position: [   -0.5524081,   -0.5524081,    0.4282010 ]
  distance:    0.0010454
  band:
  - # 1
    frequency:   -2.3173253347
  - # 2
    frequency:   -1.3359476748
  - # 3
    frequency:   -1.0237907192
  - # 4
    frequency:    1.1568307997
  - # 5
    frequency:    1.2262640491
  - # 6
    frequency:    1.5221289310
  - # 7
    frequency:    1.6098035931
  - # 8
    frequency:    2.1251453882
  - # 9
    frequency:    2.8802872589
  - # 10
    frequency:    3.8022884944
  - # 11
    frequency:    5.4186326139
  - # 12
    frequency:    5.5349013663
  - # 13
    frequency:    6.2252403858
  - # 14
    frequency:    6.2290067111
  - # 15
    frequency:    6.3806120915
  - # 16
    frequency:    7.8643781040
  - # 17
    frequency:    8.8560296413
  - # 18
    frequency:    9.3184403634
  - # 19
    frequency:   11.0988867619
  - # 20
    frequency:   12.0873952730
  - # 21
    frequency:   15.7541649308
  - # 22
    frequency:   15.9836327810
  - # 23
    frequency:   16.8849864518
  - # 24
    frequency:   18.0632177191

- q-position: [   -0.5468283,   -0.5468283,    0.4238758 ]
  distance:    0.0020908
  band:
  - # 1
    frequency:   -2.3163864904
  - # 2
    frequency:   -1.3365884008
  - # 3
    frequency:   -1.0211393968
  - # 4
    frequency:    1.1540469036
  - # 5
    frequency:    1.2423737365
  - # 6
    frequency:    1.5253795243
  - # 7
    frequency:    1.6096693713
  - # 8
    frequency:    2.1310734878
  - # 9
    frequency:    2.8813493869
  - # 10
    frequency:    3.7974248072
  - # 11
    frequency:    5.4238133082
  - # 12
    frequency:    5.5325356548
  - # 13
    frequency:    6.2277395950
  - # 14
    frequency:    6.2285080846
  - # 15
    frequency:    6.3832446137
  - # 16
    frequency:    7.8659810313
  - # 17
    frequency:    8.8534386003
  - # 18
    frequency:    9.3200684241
  - # 19
    frequency:   11.0999726842
  - # 20
    frequency:   12.0880084926
  - # 21
    frequency:   15.7553724232
  - # 22
    frequency:   15.9796548329
  - # 23
    frequency:   16.8813445691
  - # 24
    frequency:   18.0650691524

- q-position: [   -0.5412484,   -0.5412484,    0.4195505 ]
  distance:    0.0031362
  band:
  - # 1
    frequency:   -2.3155584898
  - # 2
    frequency:   -1.3367819807
  - # 3
    frequency:   -1.0182732230
  - # 4
    frequency:    1.1504485462
  - # 5
    frequency:    1.2565690012
  - # 6
    frequency:    1.5289040956
  - # 7
    frequency:    1.6109863992
  - # 8
    frequency:    2.1365809087
  - # 9
    frequency:    2.8819636957
  - # 10
    frequency:    3.7928086663
  - # 11
    frequency:    5.4287468857
  - # 12
    frequency:    5.5297347566
  - # 13
    frequency:    6.2265169759
  - # 14
    frequency:    6.2311598009
  - # 15
    frequency:    6.3863457827
  - # 16
    frequency:    7.8676316366
  - # 17
    frequency:    8.8507185157
  - # 18
    frequency:    9.3217647875
  - # 19
    frequency:   11.1007521271
  - # 20
    frequency:   12.0882333835
  - # 21
    frequency:   15.7565405716
  - # 22
    frequency:   15.9757354691
  - # 23
    frequency:   16.8776496437
  - # 24
    frequency:   18.0665264347

- q-position: [   -0.5356685,   -0.5356685,    0.4152252 ]
  distance:    0.0041816
  band:
  - # 1
    frequency:   -2.3148438324
  - # 2
    frequency:   -1.3365253812
  - # 3
    frequency:   -1.0152052124
  - # 4
    frequency:    1.1460668546
  - # 5
    frequency:    1.2687179333
  - # 6
    frequency:    1.5326704736
  - # 7
    frequency:    1.6139071581
  - # 8
    frequency:    2.1416244413
  - # 9
    frequency:    2.8821405599
  - # 10
    frequency:    3.7884493741
  - # 11
    frequency:    5.4334463667
  - # 12
    frequency:    5.5264954570
  - # 13
    frequency:    6.2253399836
  - # 14
    frequency:    6.2332410941
  - # 15
    frequency:    6.3898665905
  - # 16
    frequency:    7.8693294132
  - # 17
    frequency:    8.8478727941
  - # 18
    frequency:    9.3235260733
  - # 19
    frequency:   11.1012228772
  - # 20
    frequency:   12.0880765720
  - # 21
    frequency:   15.7576594744
  - # 22
    frequency:   15.9718980305
  - # 23
    frequency:   16.8739084985
  - # 24
    frequency:   18.0675920904

- q-position: [   -0.5300886,   -0.5300886,    0.4109000 ]
  distance:    0.0052270
  band:
  - # 1
    frequency:   -2.3142447695
  - # 2
    frequency:   -1.3358158500
  - # 3
    frequency:   -1.0119484245
  - # 4
    frequency:    1.1409352034
  - # 5
    frequency:    1.2787380046
  - # 6
    frequency:    1.5366445873
  - # 7
    frequency:    1.6185318203
  - # 8
    frequency:    2.1461621372
  - # 9
    frequency:    2.8818930439
  - # 10
    frequency:    3.7843569853
  - # 11
    frequency:    5.4379216572
  - # 12
    frequency:    5.5228203869
  - # 13
    frequency:    6.2242096552
  - # 14
    frequency:    6.2348113225
  - # 15
    frequency:    6.3937452519
  - # 16
    frequency:    7.8710739132
  - # 17
    frequency:    8.8449048304
  - # 18
    frequency:    9.3253488965
  - # 19
    frequency:   11.1013836542
  - # 20
    frequency:   12.0875463910
  - # 21
    frequency:   15.7587187082
  - # 22
    frequency:   15.9681684811
  - # 23
    frequency:   16.8701288433
  - # 24
    frequency:   18.0682694077

- q-position: [   -0.5245087,   -0.5245087,    0.4065747 ]
  distance:    0.0062724
  band:
  - # 1
    frequency:   -2.3137632893
  - # 2
    frequency:   -1.3346509269
  - # 3
    frequency:   -1.0085159829
  - # 4
    frequency:    1.1350881889
  - # 5
    frequency:    1.2866121517
  - # 6
    frequency:    1.5407914931
  - # 7
    frequency:    1.6248925055
  - # 8
    frequency:    2.1501530960
  - # 9
    frequency:    2.8812367349
  - # 10
    frequency:    3.7805422636
  - # 11
    frequency:    5.4421780344
  - # 12
    frequency:    5.5187195461
  - # 13
    frequency:    6.2231269343
  - # 14
    frequency:    6.2359386523
  - # 15
    frequency:    6.3979120999
  - # 16
    frequency:    7.8728647468
  - # 17
    frequency:    8.8418179944
  - # 18
    frequency:    9.3272298813
  - # 19
    frequency:   11.1012341317
  - # 20
    frequency:   12.0866527944
  - # 21
    frequency:   15.7597071566
  - # 22
    frequency:   15.9645755383
  - # 23
    frequency:   16.8663192674
  - # 24
    frequency:   18.0685624313

- q-position: [   -0.5189289,   -0.5189289,    0.4022494 ]
  distance:    0.0073178
  band:
  - # 1
    frequency:   -2.3134011047
  - # 2
    frequency:   -1.3330284525
  - # 3
    frequency:   -1.0049210912
  - # 4
    frequency:    1.1285607503
  - # 5
    frequency:    1.2923960103
  - # 6
    frequency:    1.5450762550
  - # 7
    frequency:    1.6329463381
  - # 8
    frequency:    2.1535573306
  - # 9
    frequency:    2.8801895326
  - # 10
    frequency:    3.7770166200
  - # 11
    frequency:    5.4462134344
  - # 12
    frequency:    5.5142130088
  - # 13
    frequency:    6.2220926709
  - # 14
    frequency:    6.2366952064
  - # 15
    frequency:    6.4022943607
  - # 16
    frequency:    7.8747015825
  - # 17
    frequency:    8.8386156183
  - # 18
    frequency:    9.3291656729
  - # 19
    frequency:   11.1007749540
  - # 20
    frequency:   12.0854072729
  - # 21
    frequency:   15.7606128197
  - # 22
    frequency:   15.9611507964
  - # 23
    frequency:   16.8624892364
  - # 24
    frequency:   18.0684759543

- q-position: [   -0.5133490,   -0.5133490,    0.3979242 ]
  distance:    0.0083632
  band:
  - # 1
    frequency:   -2.3131596441
  - # 2
    frequency:   -1.3309465727
  - # 3
    frequency:   -1.0011770440
  - # 4
    frequency:    1.1213874602
  - # 5
    frequency:    1.2962134187
  - # 6
    frequency:    1.5494646547
  - # 7
    frequency:    1.6425801933
  - # 8
    frequency:    2.1563357115
  - # 9
    frequency:    2.8787713958
  - # 10
    frequency:    3.7737920343
  - # 11
    frequency:    5.4500132150
  - # 12
    frequency:    5.5093361288
  - # 13
    frequency:    6.2211076210
  - # 14
    frequency:    6.2371530015
  - # 15
    frequency:    6.4068201607
  - # 16
    frequency:    7.8765841465
  - # 17
    frequency:    8.8353009859
  - # 18
    frequency:    9.3311529491
  - # 19
    frequency:   11.1000077483
  - # 20
    frequency:   12.0838227708
  - # 21
    frequency:   15.7614226216
  - # 22
    frequency:   15.9579288259
  - # 23
    frequency:   16.8586490947
  - # 24
    frequency:   18.0680155094

- q-position: [   -0.5077691,   -0.5077691,    0.3935989 ]
  distance:    0.0094086
  band:
  - # 1
    frequency:   -2.3130400447
  - # 2
    frequency:   -1.3284037402
  - # 3
    frequency:   -0.9972972329
  - # 4
    frequency:    1.1136019858
  - # 5
    frequency:    1.2982414787
  - # 6
    frequency:    1.5539237326
  - # 7
    frequency:    1.6536258482
  - # 8
    frequency:    2.1584499852
  - # 9
    frequency:    2.8770040438
  - # 10
    frequency:    3.7708809588
  - # 11
    frequency:    5.4535392912
  - # 12
    frequency:    5.5041503470
  - # 13
    frequency:    6.2201724469
  - # 14
    frequency:    6.2373809729
  - # 15
    frequency:    6.4114214713
  - # 16
    frequency:    7.8785122219
  - # 17
    frequency:    8.8318773230
  - # 18
    frequency:    9.3331884293
  - # 19
    frequency:   11.0989351306
  - # 20
    frequency:   12.0819136053
  - # 21
    frequency:   15.7621222427
  - # 22
    frequency:   15.9549472188
  - # 23
    frequency:   16.8548100737
  - # 24
    frequency:   18.0671873573

- q-position: [   -0.5021892,   -0.5021892,    0.3892737 ]
  distance:    0.0104540
  band:
  - # 1
    frequency:   -2.3130431477
  - # 2
    frequency:   -1.3253987130
  - # 3
    frequency:   -0.9932951460
  - # 4
    frequency:    1.1052367078
  - # 5
    frequency:    1.2986899376
  - # 6
    frequency:    1.5584221709
  - # 7
    frequency:    1.6658807795
  - # 8
    frequency:    2.1598628662
  - # 9
    frequency:    2.8749106161
  - # 10
    frequency:    3.7682962033
  - # 11
    frequency:    5.4567059463
  - # 12
    frequency:    5.4987672918
  - # 13
    frequency:    6.2192877171
  - # 14
    frequency:    6.2374430889
  - # 15
    frequency:    6.4160359908
  - # 16
    frequency:    7.8804856482
  - # 17
    frequency:    8.8283477892
  - # 18
    frequency:    9.3352688834
  - # 19
    frequency:   11.0975607078
  - # 20
    frequency:   12.0796953876
  - # 21
    frequency:   15.7626960135
  - # 22
    frequency:   15.9522465456
  - # 23
    frequency:   16.8509843076
  - # 24
    frequency:   18.0659984763

- q-position: [   -0.4966093,   -0.4966093,    0.3849484 ]
  distance:    0.0114994
  band:
  - # 1
    frequency:   -2.3131694976
  - # 2
    frequency:   -1.3219305479
  - # 3
    frequency:   -0.9891843599
  - # 4
    frequency:    1.0963224759
  - # 5
    frequency:    1.2977805275
  - # 6
    frequency:    1.5629305397
  - # 7
    frequency:    1.6791289758
  - # 8
    frequency:    2.1605381963
  - # 9
    frequency:    2.8725152901
  - # 10
    frequency:    3.7660508047
  - # 11
    frequency:    5.4593231601
  - # 12
    frequency:    5.4934053328
  - # 13
    frequency:    6.2184539067
  - # 14
    frequency:    6.2373973799
  - # 15
    frequency:    6.4206081377
  - # 16
    frequency:    7.8825043202
  - # 17
    frequency:    8.8247154707
  - # 18
    frequency:    9.3373911389
  - # 19
    frequency:   11.0958890730
  - # 20
    frequency:   12.0771849468
  - # 21
    frequency:   15.7631269113
  - # 22
    frequency:   15.9498701790
  - # 23
    frequency:   16.8471848577
  - # 24
    frequency:   18.0644565491

- q-position: [   -0.4910295,   -0.4910295,    0.3806231 ]
  distance:    0.0125448
  band:
  - # 1
    frequency:   -2.3134193427
  - # 2
    frequency:   -1.3179985915
  - # 3
    frequency:   -0.9849785235
  - # 4
    frequency:    1.0868884762
  - # 5
    frequency:    1.2957303163
  - # 6
    frequency:    1.5674214316
  - # 7
    frequency:    1.6931577116
  - # 8
    frequency:    2.1604411673
  - # 9
    frequency:    2.8698428639
  - # 10
    frequency:    3.7641578800
  - # 11
    frequency:    5.4609706138
  - # 12
    frequency:    5.4885154251
  - # 13
    frequency:    6.2176713982
  - # 14
    frequency:    6.2372956446
  - # 15
    frequency:    6.4250893934
  - # 16
    frequency:    7.8845681871
  - # 17
    frequency:    8.8209833750
  - # 18
    frequency:    9.3395520868
  - # 19
    frequency:   11.0939257957
  - # 20
    frequency:   12.0744002562
  - # 21
    frequency:   15.7633967066
  - # 22
    frequency:   15.9478639385
  - # 23
    frequency:   16.8434257450
  - # 24
    frequency:   18.0625699499

- q-position: [   -0.4854496,   -0.4854496,    0.3762979 ]
  distance:    0.0135902
  band:
  - # 1
    frequency:   -2.3137926396
  - # 2
    frequency:   -1.3136024676
  - # 3
    frequency:   -0.9806913336
  - # 4
    frequency:    1.0769621871
  - # 5
    frequency:    1.2927406526
  - # 6
    frequency:    1.5718695086
  - # 7
    frequency:    1.7077687068
  - # 8
    frequency:    2.1595385956
  - # 9
    frequency:    2.8669183100
  - # 10
    frequency:    3.7626304666
  - # 11
    frequency:    5.4608410266
  - # 12
    frequency:    5.4849375925
  - # 13
    frequency:    6.2169404823
  - # 14
    frequency:    6.2371836035
  - # 15
    frequency:    6.4294382184
  - # 16
    frequency:    7.8866772514
  - # 17
    frequency:    8.8171544255
  - # 18
    frequency:    9.3417486869
  - # 19
    frequency:   11.0916774063
  - # 20
    frequency:   12.0713603625
  - # 21
    frequency:   15.7634863026
  - # 22
    frequency:   15.9462755132
  - # 23
    frequency:   16.8397219947
  - # 24
    frequency:   18.0603477307

- q-position: [   -0.4798697,   -0.4798697,    0.3719726 ]
  distance:    0.0146356
  band:
  - # 1
    frequency:   -2.3142890589
  - # 2
    frequency:   -1.3087420603
  - # 3
    frequency:   -0.9763365017
  - # 4
    frequency:    1.0665693998
  - # 5
    frequency:    1.2889913310
  - # 6
    frequency:    1.5762514839
  - # 7
    frequency:    1.7227840430
  - # 8
    frequency:    2.1577992427
  - # 9
    frequency:    2.8637663095
  - # 10
    frequency:    3.7614813508
  - # 11
    frequency:    5.4580990362
  - # 12
    frequency:    5.4835418371
  - # 13
    frequency:    6.2162613583
  - # 14
    frequency:    6.2371013154
  - # 15
    frequency:    6.4336197279
  - # 16
    frequency:    7.8888315671
  - # 17
    frequency:    8.8132314585
  - # 18
    frequency:    9.3439779717
  - # 19
    frequency:   11.0891513751
  - # 20
    frequency:   12.0680853163
  - # 21
    frequency:   15.7633762943
  - # 22
    frequency:   15.9451536344
  - # 23
    frequency:   16.8360896909
  - # 24
    frequency:   18.0577996073

- q-position: [   -0.4742898,   -0.4742898,    0.3676473 ]
  distance:    0.0156810
  band:
  - # 1
    frequency:   -2.3149079942
  - # 2
    frequency:   -1.3034174947
  - # 3
    frequency:   -0.9719277115
  - # 4
    frequency:    1.0557342861
  - # 5
    frequency:    1.2846386719
  - # 6
    frequency:    1.5805460569
  - # 7
    frequency:    1.7380481475
  - # 8
    frequency:    2.1551941669
  - # 9
    frequency:    2.8604107796
  - # 10
    frequency:    3.7607228880
  - # 11
    frequency:    5.4529160512
  - # 12
    frequency:    5.4841930512
  - # 13
    frequency:    6.2156341359
  - # 14
    frequency:    6.2370837213
  - # 15
    frequency:    6.4376052535
  - # 16
    frequency:    7.8910312390
  - # 17
    frequency:    8.8092172203
  - # 18
    frequency:    9.3462370496
  - # 19
    frequency:   11.0863560854
  - # 20
    frequency:   12.0645961049
  - # 21
    frequency:   15.7630477521
  - # 22
    frequency:   15.9445469945
  - # 23
    frequency:   16.8325460436
  - # 24
    frequency:   18.0549359441

- q-position: [   -0.4687099,   -0.4687099,    0.3633221 ]
  distance:    0.0167264
  band:
  - # 1
    frequency:   -2.3156485719
  - # 2
    frequency:   -1.2976291140
  - # 3
    frequency:   -0.9674785673
  - # 4
    frequency:    1.0444794959
  - # 5
    frequency:    1.2798160811
  - # 6
    frequency:    1.5847338181
  - # 7
    frequency:    1.7534272758
  - # 8
    frequency:    2.1516970933
  - # 9
    frequency:    2.8568744071
  - # 10
    frequency:    3.7603668182
  - # 11
    frequency:    5.4461602779
  - # 12
    frequency:    5.4860607311
  - # 13
    frequency:    6.2150588358
  - # 14
    frequency:    6.2371612231
  - # 15
    frequency:    6.4413718818
  - # 16
    frequency:    7.8932764205
  - # 17
    frequency:    8.8051143650
  - # 18
    frequency:    9.3485231074
  - # 19
    frequency:   11.0833008017
  - # 20
    frequency:   12.0609145865
  - # 21
    frequency:   15.7624831930
  - # 22
    frequency:   15.9445029499
  - # 23
    frequency:   16.8291094693
  - # 24
    frequency:   18.0517677406

- q-position: [   -0.4631301,   -0.4631301,    0.3589968 ]
  distance:    0.0177718
  band:
  - # 1
    frequency:   -2.3165096641
  - # 2
    frequency:   -1.2913774537
  - # 3
    frequency:   -0.9630025350
  - # 4
    frequency:    1.0328262747
  - # 5
    frequency:    1.2746359292
  - # 6
    frequency:    1.5887971353
  - # 7
    frequency:    1.7688076539
  - # 8
    frequency:    2.1472847905
  - # 9
    frequency:    2.8531782046
  - # 10
    frequency:    3.7604240803
  - # 11
    frequency:    5.4384761459
  - # 12
    frequency:    5.4885392731
  - # 13
    frequency:    6.2145353915
  - # 14
    frequency:    6.2373602409
  - # 15
    frequency:    6.4449020205
  - # 16
    frequency:    7.8955673123
  - # 17
    frequency:    8.8009254539
  - # 18
    frequency:    9.3508334117
  - # 19
    frequency:   11.0799956329
  - # 20
    frequency:   12.0570634245
  - # 21
    frequency:   15.7616676623
  - # 22
    frequency:   15.9450660839
  - # 23
    frequency:   16.8257996844
  - # 24
    frequency:   18.0483066165

- q-position: [   -0.4575502,   -0.4575502,    0.3546716 ]
  distance:    0.0188172
  band:
  - # 1
    frequency:   -2.3174899020
  - # 2
    frequency:   -1.2846632129
  - # 3
    frequency:   -0.9585128737
  - # 4
    frequency:    1.0207945897
  - # 5
    frequency:    1.2691919636
  - # 6
    frequency:    1.5927200301
  - # 7
    frequency:    1.7840930628
  - # 8
    frequency:    2.1419374384
  - # 9
    frequency:    2.8493411060
  - # 10
    frequency:    3.7609046287
  - # 11
    frequency:    5.4301989493
  - # 12
    frequency:    5.4913330358
  - # 13
    frequency:    6.2140636507
  - # 14
    frequency:    6.2377037131
  - # 15
    frequency:    6.4481830229
  - # 16
    frequency:    7.8979041604
  - # 17
    frequency:    8.7966529550
  - # 18
    frequency:    9.3531653102
  - # 19
    frequency:   11.0764514902
  - # 20
    frequency:   12.0530660219
  - # 21
    frequency:   15.7605898099
  - # 22
    frequency:   15.9462767492
  - # 23
    frequency:   16.8226378137
  - # 24
    frequency:   18.0445647983

- q-position: [   -0.4519703,   -0.4519703,    0.3503463 ]
  distance:    0.0198626
  band:
  - # 1
    frequency:   -2.3185876904
  - # 2
    frequency:   -1.2774872235
  - # 3
    frequency:   -0.9540225614
  - # 4
    frequency:    1.0084032590
  - # 5
    frequency:    1.2635617837
  - # 6
    frequency:    1.5964880522
  - # 7
    frequency:    1.7992023269
  - # 8
    frequency:    2.1356389807
  - # 9
    frequency:    2.8453796160
  - # 10
    frequency:    3.7618172579
  - # 11
    frequency:    5.4215045715
  - # 12
    frequency:    5.4943063073
  - # 13
    frequency:    6.2136433770
  - # 14
    frequency:    6.2382115179
  - # 15
    frequency:    6.4512068878
  - # 16
    frequency:    7.9002872544
  - # 17
    frequency:    8.7922992430
  - # 18
    frequency:    9.3555162320
  - # 19
    frequency:   11.0726800413
  - # 20
    frequency:   12.0489464553
  - # 21
    frequency:   15.7592428255
  - # 22
    frequency:   15.9481697246
  - # 23
    frequency:   16.8196465115
  - # 24
    frequency:   18.0405551063

- q-position: [   -0.4463904,   -0.4463904,    0.3460210 ]
  distance:    0.0209080
  band:
  - # 1
    frequency:   -2.3198012239
  - # 2
    frequency:   -1.2698504161
  - # 3
    frequency:   -0.9495442147
  - # 4
    frequency:    0.9956700797
  - # 5
    frequency:    1.2578091370
  - # 6
    frequency:    1.6000881550
  - # 7
    frequency:    1.8140669368
  - # 8
    frequency:    2.1283774590
  - # 9
    frequency:    2.8413075281
  - # 10
    frequency:    3.7631694378
  - # 11
    frequency:    5.4124969447
  - # 12
    frequency:    5.4973955265
  - # 13
    frequency:    6.2132742518
  - # 14
    frequency:    6.2389008058
  - # 15
    frequency:    6.4539700412
  - # 16
    frequency:    7.9027169251
  - # 17
    frequency:    8.7878666004
  - # 18
    frequency:    9.3578836878
  - # 19
    frequency:   11.0686936598
  - # 20
    frequency:   12.0447294072
  - # 21
    frequency:   15.7576251051
  - # 22
    frequency:   15.9507731159
  - # 23
    frequency:   16.8168500988
  - # 24
    frequency:   18.0362909426

- q-position: [   -0.4408105,   -0.4408105,    0.3416958 ]
  distance:    0.0219534
  band:
  - # 1
    frequency:   -2.3211285030
  - # 2
    frequency:   -1.2617537851
  - # 3
    frequency:   -0.9450900031
  - # 4
    frequency:    0.9826119502
  - # 5
    frequency:    1.2519859346
  - # 6
    frequency:    1.6035085763
  - # 7
    frequency:    1.8286288860
  - # 8
    frequency:    2.1201453394
  - # 9
    frequency:    2.8371357239
  - # 10
    frequency:    3.7649671659
  - # 11
    frequency:    5.4032461945
  - # 12
    frequency:    5.5005708140
  - # 13
    frequency:    6.2129558763
  - # 14
    frequency:    6.2397862342
  - # 15
    frequency:    6.4564732044
  - # 16
    frequency:    7.9051935428
  - # 17
    frequency:    8.7833572189
  - # 18
    frequency:    9.3602652689
  - # 19
    frequency:   11.0645053709
  - # 20
    frequency:   12.0404400961
  - # 21
    frequency:   15.7557405596
  - # 22
    frequency:   15.9541075934
  - # 23
    frequency:   16.8142747117
  - # 24
    frequency:   18.0317862816

- q-position: [   -0.4352307,   -0.4352307,    0.3373705 ]
  distance:    0.0229988
  band:
  - # 1
    frequency:   -2.3225673503
  - # 2
    frequency:   -1.2531983504
  - # 3
    frequency:   -0.9406715617
  - # 4
    frequency:    0.9692449873
  - # 5
    frequency:    1.2461339639
  - # 6
    frequency:    1.6067387262
  - # 7
    frequency:    1.8428387021
  - # 8
    frequency:    2.1109398639
  - # 9
    frequency:    2.8328720589
  - # 10
    frequency:    3.7672148393
  - # 11
    frequency:    5.3938051849
  - # 12
    frequency:    5.5038190985
  - # 13
    frequency:    6.2126877733
  - # 14
    frequency:    6.2408800998
  - # 15
    frequency:    6.4587213493
  - # 16
    frequency:    7.9077175150
  - # 17
    frequency:    8.7787732005
  - # 18
    frequency:    9.3626586470
  - # 19
    frequency:   11.0601287943
  - # 20
    frequency:   12.0361042040
  - # 21
    frequency:   15.7535985335
  - # 22
    frequency:   15.9581859993
  - # 23
    frequency:   16.8119484636
  - # 24
    frequency:   18.0270556612

- q-position: [   -0.4296508,   -0.4296508,    0.3330452 ]
  distance:    0.0240442
  band:
  - # 1
    frequency:   -2.3241154270
  - # 2
    frequency:   -1.2441851182
  - # 3
    frequency:   -0.9362999016
  - # 4
    frequency:    0.9555846341
  - # 5
    frequency:    1.2402863165
  - # 6
    frequency:    1.6097690820
  - # 7
    frequency:    1.8566535771
  - # 8
    frequency:    2.1007635013
  - # 9
    frequency:    2.8285213396
  - # 10
    frequency:    3.7699151517
  - # 11
    frequency:    5.3842170634
  - # 12
    frequency:    5.5071362426
  - # 13
    frequency:    6.2124693897
  - # 14
    frequency:    6.2421923619
  - # 15
    frequency:    6.4607237451
  - # 16
    frequency:    7.9102892839
  - # 17
    frequency:    8.7741165604
  - # 18
    frequency:    9.3650615727
  - # 19
    frequency:   11.0555780832
  - # 20
    frequency:   12.0317478005
  - # 21
    frequency:   15.7512133660
  - # 22
    frequency:   15.9630132967
  - # 23
    frequency:   16.8099016157
  - # 24
    frequency:   18.0221141780

- q-position: [   -0.4240709,   -0.4240709,    0.3287200 ]
  distance:    0.0250896
  band:
  - # 1
    frequency:   -2.3257702496
  - # 2
    frequency:   -1.2347150391
  - # 3
    frequency:   -0.9319853214
  - # 4
    frequency:    0.9416457611
  - # 5
    frequency:    1.2344685666
  - # 6
    frequency:    1.6125910923
  - # 7
    frequency:    1.8700354107
  - # 8
    frequency:    2.0896246489
  - # 9
    frequency:    2.8240853891
  - # 10
    frequency:    3.7730690175
  - # 11
    frequency:    5.3745188867
  - # 12
    frequency:    5.5105230929
  - # 13
    frequency:    6.2123000988
  - # 14
    frequency:    6.2437305526
  - # 15
    frequency:    6.4624940975
  - # 16
    frequency:    7.9129093241
  - # 17
    frequency:    8.7693892287
  - # 18
    frequency:    9.3674718740
  - # 19
    frequency:   11.0508678612
  - # 20
    frequency:   12.0273972632
  - # 21
    frequency:   15.7486036768
  - # 22
    frequency:   15.9685867833
  - # 23
    frequency:   16.8081667555
  - # 24
    frequency:   18.0169774850

- q-position: [   -0.4184910,   -0.4184910,    0.3243947 ]
  distance:    0.0261350
  band:
  - # 1
    frequency:   -2.3275292046
  - # 2
    frequency:   -1.2247889656
  - # 3
    frequency:   -0.9277373220
  - # 4
    frequency:    0.9274427587
  - # 5
    frequency:    1.2286997404
  - # 6
    frequency:    1.6151970889
  - # 7
    frequency:    1.8829484062
  - # 8
    frequency:    2.0775389124
  - # 9
    frequency:    2.8195631943
  - # 10
    frequency:    3.7766755273
  - # 11
    frequency:    5.3647434310
  - # 12
    frequency:    5.5139833500
  - # 13
    frequency:    6.2121792025
  - # 14
    frequency:    6.2454995650
  - # 15
    frequency:    6.4640507863
  - # 16
    frequency:    7.9155781402
  - # 17
    frequency:    8.7645930535
  - # 18
    frequency:    9.3698874551
  - # 19
    frequency:   11.0460131570
  - # 20
    frequency:   12.0230791939
  - # 21
    frequency:   15.7457914856
  - # 22
    frequency:   15.9748964659
  - # 23
    frequency:   16.8067789756
  - # 24
    frequency:   18.0116617935

- q-position: [   -0.4129111,   -0.4129111,    0.3200694 ]
  distance:    0.0271804
  band:
  - # 1
    frequency:   -2.3293895643
  - # 2
    frequency:   -1.2144076062
  - # 3
    frequency:   -0.9235645248
  - # 4
    frequency:    0.9129896221
  - # 5
    frequency:    1.2229931148
  - # 6
    frequency:    1.6175802068
  - # 7
    frequency:    1.8953554623
  - # 8
    frequency:    2.0645316927
  - # 9
    frequency:    2.8149511256
  - # 10
    frequency:    3.7807319358
  - # 11
    frequency:    5.3549201150
  - # 12
    frequency:    5.5175223375
  - # 13
    frequency:    6.2121059341
  - # 14
    frequency:    6.2475013130
  - # 15
    frequency:    6.4654172059
  - # 16
    frequency:    7.9182962643
  - # 17
    frequency:    8.7597298035
  - # 18
    frequency:    9.3723062942
  - # 19
    frequency:   11.0410293363
  - # 20
    frequency:   12.0188203296
  - # 21
    frequency:   15.7428012736
  - # 22
    frequency:   15.9819254946
  - # 23
    frequency:   16.8057760492
  - # 24
    frequency:   18.0061838799

- q-position: [   -0.4073313,   -0.4073313,    0.3157442 ]
  distance:    0.0282258
  band:
  - # 1
    frequency:   -2.3313485006
  - # 2
    frequency:   -1.2035714793
  - # 3
    frequency:   -0.9194745977
  - # 4
    frequency:    0.8983000290
  - # 5
    frequency:    1.2173568783
  - # 6