nqpoint: 1515   
npath: 15     
segment_nqpoint:
- 101
- 101
- 101
- 101
- 101
- 101
- 101
- 101
- 101
- 101
- 101
- 101
- 101
- 101
- 101
reciprocal_lattice:
- [  -0.28254161,  -0.08069968,   0.01166474 ] # a*
- [   0.28254161,  -0.08069968,   0.01166474 ] # b*
- [  -0.00000000,  -0.00000000,   0.15282859 ] # c*
natom: 8      
lattice:
- [    -1.769650875591755,    -6.195811489967705,     0.000000000000000 ] # a
- [     1.769650875591755,    -6.195811489967705,     0.000000000000000 ] # b
- [     0.000000000000000,     0.945798904897284,     6.543278527973584 ] # c
points:
- symbol: Ag # 1
  coordinates: [  0.000000000000000,  0.000000000000000,  0.000000000000000 ]
  mass: 107.868200
- symbol: Ag # 2
  coordinates: [  0.500000000000000,  0.500000000000000,  0.500000000000000 ]
  mass: 107.868200
- symbol: Bi # 3
  coordinates: [  0.240619203743652,  0.240619203743653,  0.739928970048948 ]
  mass: 208.980400
- symbol: Bi # 4
  coordinates: [  0.759380796256347,  0.759380796256348,  0.260071029951052 ]
  mass: 208.980400
- symbol: O # 5
  coordinates: [  0.663696861546966,  0.663696861546966,  0.511235047323346 ]
  mass: 15.999400
- symbol: O # 6
  coordinates: [  0.336303138453034,  0.336303138453034,  0.488764952676655 ]
  mass: 15.999400
- symbol: O # 7
  coordinates: [  0.161401958856205,  0.161401958856205,  0.118239479755150 ]
  mass: 15.999400
- symbol: O # 8
  coordinates: [  0.838598041143795,  0.838598041143795,  0.881760520244850 ]
  mass: 15.999400

phonon:
- q-position: [   -0.5579880,   -0.5579880,    0.4325263 ]
  distance:    0.0000000
  band:
  - # 1
    frequency:   -0.4986284637
  - # 2
    frequency:    0.9640452853
  - # 3
    frequency:    1.0662194439
  - # 4
    frequency:    1.4351881059
  - # 5
    frequency:    1.9889791769
  - # 6
    frequency:    2.0679781379
  - # 7
    frequency:    2.0859623640
  - # 8
    frequency:    2.4926226527
  - # 9
    frequency:    2.8471240881
  - # 10
    frequency:    3.5526372112
  - # 11
    frequency:    5.0632081845
  - # 12
    frequency:    5.3310874634
  - # 13
    frequency:    5.8688646323
  - # 14
    frequency:    6.0296508830
  - # 15
    frequency:    6.6971623339
  - # 16
    frequency:    7.8030055401
  - # 17
    frequency:    9.7402355723
  - # 18
    frequency:   10.2580006605
  - # 19
    frequency:   11.2251315475
  - # 20
    frequency:   12.0519208711
  - # 21
    frequency:   15.8338005937
  - # 22
    frequency:   16.5622260166
  - # 23
    frequency:   17.1697356789
  - # 24
    frequency:   18.1771739698

- q-position: [   -0.5524081,   -0.5524081,    0.4282010 ]
  distance:    0.0010454
  band:
  - # 1
    frequency:   -0.4963912760
  - # 2
    frequency:    0.9628453615
  - # 3
    frequency:    1.0647442974
  - # 4
    frequency:    1.4389186804
  - # 5
    frequency:    1.9874360977
  - # 6
    frequency:    2.0725765900
  - # 7
    frequency:    2.0869692167
  - # 8
    frequency:    2.4919516517
  - # 9
    frequency:    2.8501801280
  - # 10
    frequency:    3.5469343201
  - # 11
    frequency:    5.0659985421
  - # 12
    frequency:    5.3355449180
  - # 13
    frequency:    5.8664931664
  - # 14
    frequency:    6.0286241239
  - # 15
    frequency:    6.6994588794
  - # 16
    frequency:    7.7997641401
  - # 17
    frequency:    9.7426678775
  - # 18
    frequency:   10.2589281751
  - # 19
    frequency:   11.2325666135
  - # 20
    frequency:   12.0481312425
  - # 21
    frequency:   15.8320356341
  - # 22
    frequency:   16.5631582129
  - # 23
    frequency:   17.1665890371
  - # 24
    frequency:   18.1787403854

- q-position: [   -0.5468283,   -0.5468283,    0.4238758 ]
  distance:    0.0020908
  band:
  - # 1
    frequency:   -0.4945681177
  - # 2
    frequency:    0.9618622292
  - # 3
    frequency:    1.0632658496
  - # 4
    frequency:    1.4425671879
  - # 5
    frequency:    1.9855284374
  - # 6
    frequency:    2.0772355769
  - # 7
    frequency:    2.0870704051
  - # 8
    frequency:    2.4910755713
  - # 9
    frequency:    2.8531814721
  - # 10
    frequency:    3.5415094640
  - # 11
    frequency:    5.0671642265
  - # 12
    frequency:    5.3402163678
  - # 13
    frequency:    5.8644604779
  - # 14
    frequency:    6.0278056073
  - # 15
    frequency:    6.7023217382
  - # 16
    frequency:    7.7963260115
  - # 17
    frequency:    9.7451701287
  - # 18
    frequency:   10.2598194563
  - # 19
    frequency:   11.2390366520
  - # 20
    frequency:   12.0442746653
  - # 21
    frequency:   15.8303833311
  - # 22
    frequency:   16.5636452929
  - # 23
    frequency:   17.1638384054
  - # 24
    frequency:   18.1798896985

- q-position: [   -0.5412484,   -0.5412484,    0.4195505 ]
  distance:    0.0031362
  band:
  - # 1
    frequency:   -0.4931708137
  - # 2
    frequency:    0.9610968626
  - # 3
    frequency:    1.0617858199
  - # 4
    frequency:    1.4461234719
  - # 5
    frequency:    1.9832980303
  - # 6
    frequency:    2.0819100206
  - # 7
    frequency:    2.0862585344
  - # 8
    frequency:    2.4899946336
  - # 9
    frequency:    2.8561127062
  - # 10
    frequency:    3.5363711848
  - # 11
    frequency:    5.0667339982
  - # 12
    frequency:    5.3450803122
  - # 13
    frequency:    5.8627697229
  - # 14
    frequency:    6.0272025530
  - # 15
    frequency:    6.7057324325
  - # 16
    frequency:    7.7926950874
  - # 17
    frequency:    9.7477401822
  - # 18
    frequency:   10.2606726550
  - # 19
    frequency:   11.2445034293
  - # 20
    frequency:   12.0403901305
  - # 21
    frequency:   15.8288447512
  - # 22
    frequency:   16.5636868262
  - # 23
    frequency:   17.1615016857
  - # 24
    frequency:   18.1806242084

- q-position: [   -0.5356685,   -0.5356685,    0.4152252 ]
  distance:    0.0041816
  band:
  - # 1
    frequency:   -0.4922084789
  - # 2
    frequency:    0.9605490828
  - # 3
    frequency:    1.0603051196
  - # 4
    frequency:    1.4495778737
  - # 5
    frequency:    1.9807777404
  - # 6
    frequency:    2.0845286276
  - # 7
    frequency:    2.0865643104
  - # 8
    frequency:    2.4887072069
  - # 9
    frequency:    2.8589590918
  - # 10
    frequency:    3.5315279627
  - # 11
    frequency:    5.0647510693
  - # 12
    frequency:    5.3501127711
  - # 13
    frequency:    5.8614237731
  - # 14
    frequency:    6.0268165912
  - # 15
    frequency:    6.7096682892
  - # 16
    frequency:    7.7888753383
  - # 17
    frequency:    9.7503758862
  - # 18
    frequency:   10.2614859185
  - # 19
    frequency:   11.2489299335
  - # 20
    frequency:   12.0365199781
  - # 21
    frequency:   15.8274214830
  - # 22
    frequency:   16.5632848348
  - # 23
    frequency:   17.1595963696
  - # 24
    frequency:   18.1809470593

- q-position: [   -0.5300886,   -0.5300886,    0.4109000 ]
  distance:    0.0052270
  band:
  - # 1
    frequency:   -0.4916873540
  - # 2
    frequency:    0.9602175725
  - # 3
    frequency:    1.0588238343
  - # 4
    frequency:    1.4529212679
  - # 5
    frequency:    1.9779933306
  - # 6
    frequency:    2.0818782150
  - # 7
    frequency:    2.0911704363
  - # 8
    frequency:    2.4872096819
  - # 9
    frequency:    2.8617067109
  - # 10
    frequency:    3.5269881247
  - # 11
    frequency:    5.0612711170
  - # 12
    frequency:    5.3552887452
  - # 13
    frequency:    5.8604252081
  - # 14
    frequency:    6.0266438981
  - # 15
    frequency:    6.7141028744
  - # 16
    frequency:    7.7848707678
  - # 17
    frequency:    9.7530750801
  - # 18
    frequency:   10.2622573975
  - # 19
    frequency:   11.2522809062
  - # 20
    frequency:   12.0327092559
  - # 21
    frequency:   15.8261156369
  - # 22
    frequency:   16.5624438761
  - # 23
    frequency:   17.1581394029
  - # 24
    frequency:   18.1808622251

- q-position: [   -0.5245087,   -0.5245087,    0.4065747 ]
  distance:    0.0062724
  band:
  - # 1
    frequency:   -0.4916106914
  - # 2
    frequency:    0.9600998954
  - # 3
    frequency:    1.0573412142
  - # 4
    frequency:    1.4561450807
  - # 5
    frequency:    1.9749650907
  - # 6
    frequency:    2.0783073854
  - # 7
    frequency:    2.0957063645
  - # 8
    frequency:    2.4854964231
  - # 9
    frequency:    2.8643425858
  - # 10
    frequency:    3.5227597495
  - # 11
    frequency:    5.0563601085
  - # 12
    frequency:    5.3605835578
  - # 13
    frequency:    5.8597763080
  - # 14
    frequency:    6.0266756102
  - # 15
    frequency:    6.7190064632
  - # 16
    frequency:    7.7806854079
  - # 17
    frequency:    9.7558355922
  - # 18
    frequency:   10.2629852523
  - # 19
    frequency:   11.2545234580
  - # 20
    frequency:   12.0290049781
  - # 21
    frequency:   15.8249298298
  - # 22
    frequency:   16.5611710898
  - # 23
    frequency:   17.1571470796
  - # 24
    frequency:   18.1803744909

- q-position: [   -0.5189289,   -0.5189289,    0.4022494 ]
  distance:    0.0073178
  band:
  - # 1
    frequency:   -0.4919786951
  - # 2
    frequency:    0.9601925192
  - # 3
    frequency:    1.0558556725
  - # 4
    frequency:    1.4592412926
  - # 5
    frequency:    1.9717091509
  - # 6
    frequency:    2.0738187915
  - # 7
    frequency:    2.1001547247
  - # 8
    frequency:    2.4835598015
  - # 9
    frequency:    2.8668547698
  - # 10
    frequency:    3.5188505728
  - # 11
    frequency:    5.0500921465
  - # 12
    frequency:    5.3659739188
  - # 13
    frequency:    5.8594790469
  - # 14
    frequency:    6.0268984751
  - # 15
    frequency:    6.7243465325
  - # 16
    frequency:    7.7763233139
  - # 17
    frequency:    9.7586552386
  - # 18
    frequency:   10.2636676602
  - # 19
    frequency:   11.2556277550
  - # 20
    frequency:   12.0254552979
  - # 21
    frequency:   15.8238671579
  - # 22
    frequency:   16.5594762040
  - # 23
    frequency:   17.1566349726
  - # 24
    frequency:   18.1794894324

- q-position: [   -0.5133490,   -0.5133490,    0.3979242 ]
  distance:    0.0083632
  band:
  - # 1
    frequency:   -0.4927885167
  - # 2
    frequency:    0.9604908436
  - # 3
    frequency:    1.0543647917
  - # 4
    frequency:    1.4622024241
  - # 5
    frequency:    1.9682385010
  - # 6
    frequency:    2.0684176081
  - # 7
    frequency:    2.1045017905
  - # 8
    frequency:    2.4813903081
  - # 9
    frequency:    2.8692324091
  - # 10
    frequency:    3.5152678956
  - # 11
    frequency:    5.0425474700
  - # 12
    frequency:    5.3714386428
  - # 13
    frequency:    5.8595350869
  - # 14
    frequency:    6.0272956777
  - # 15
    frequency:    6.7300882700
  - # 16
    frequency:    7.7717885604
  - # 17
    frequency:    9.7615318218
  - # 18
    frequency:   10.2643028215
  - # 19
    frequency:   11.2555677543
  - # 20
    frequency:   12.0221086179
  - # 21
    frequency:   15.8229311570
  - # 22
    frequency:   16.5573714973
  - # 23
    frequency:   17.1566179021
  - # 24
    frequency:   18.1782133932

- q-position: [   -0.5077691,   -0.5077691,    0.3935989 ]
  distance:    0.0094086
  band:
  - # 1
    frequency:   -0.4940343094
  - # 2
    frequency:    0.9609892301
  - # 3
    frequency:    1.0528653377
  - # 4
    frequency:    1.4650215066
  - # 5
    frequency:    1.9645637665
  - # 6
    frequency:    2.0621114446
  - # 7
    frequency:    2.1087367024
  - # 8
    frequency:    2.4789767454
  - # 9
    frequency:    2.8714657763
  - # 10
    frequency:    3.5120185007
  - # 11
    frequency:    5.0338106771
  - # 12
    frequency:    5.3769590272
  - # 13
    frequency:    5.8599457718
  - # 14
    frequency:    6.0278477758
  - # 15
    frequency:    6.7361950911
  - # 16
    frequency:    7.7670852369
  - # 17
    frequency:    9.7644631285
  - # 18
    frequency:   10.2648889670
  - # 19
    frequency:   11.2543219602
  - # 20
    frequency:   12.0190126659
  - # 21
    frequency:   15.8221257509
  - # 22
    frequency:   16.5548717149
  - # 23
    frequency:   17.1571099439
  - # 24
    frequency:   18.1765534589

- q-position: [   -0.5021892,   -0.5021892,    0.3892737 ]
  distance:    0.0104540
  band:
  - # 1
    frequency:   -0.4957073354
  - # 2
    frequency:    0.9616810341
  - # 3
    frequency:    1.0513532825
  - # 4
    frequency:    1.4676920382
  - # 5
    frequency:    1.9606937937
  - # 6
    frequency:    2.0549102149
  - # 7
    frequency:    2.1128508804
  - # 8
    frequency:    2.4763064881
  - # 9
    frequency:    2.8735462738
  - # 10
    frequency:    3.5091085786
  - # 11
    frequency:    5.0239691814
  - # 12
    frequency:    5.3825189509
  - # 13
    frequency:    5.8607121226
  - # 14
    frequency:    6.0285336760
  - # 15
    frequency:    6.7426291586
  - # 16
    frequency:    7.7622174433
  - # 17
    frequency:    9.7674469288
  - # 18
    frequency:   10.2654243643
  - # 19
    frequency:   11.2518741625
  - # 20
    frequency:   12.0162135765
  - # 21
    frequency:   15.8214551910
  - # 22
    frequency:   16.5519939401
  - # 23
    frequency:   17.1581244758
  - # 24
    frequency:   18.1745174306

- q-position: [   -0.4966093,   -0.4966093,    0.3849484 ]
  distance:    0.0114994
  band:
  - # 1
    frequency:   -0.4977961244
  - # 2
    frequency:    0.9625586382
  - # 3
    frequency:    1.0498238333
  - # 4
    frequency:    1.4702079259
  - # 5
    frequency:    1.9566360893
  - # 6
    frequency:    2.0468259730
  - # 7
    frequency:    2.1168375802
  - # 8
    frequency:    2.4733658037
  - # 9
    frequency:    2.8754664111
  - # 10
    frequency:    3.5065436686
  - # 11
    frequency:    5.0131118885
  - # 12
    frequency:    5.3881047737
  - # 13
    frequency:    5.8618348324
  - # 14
    frequency:    6.0293315895
  - # 15
    frequency:    6.7493518967
  - # 16
    frequency:    7.7571892859
  - # 17
    frequency:    9.7704809739
  - # 18
    frequency:   10.2659073250
  - # 19
    frequency:   11.2482141177
  - # 20
    frequency:   12.0137550188
  - # 21
    frequency:   15.8209239861
  - # 22
    frequency:   16.5487574222
  - # 23
    frequency:   17.1596742580
  - # 24
    frequency:   18.1721137957

- q-position: [   -0.4910295,   -0.4910295,    0.3806231 ]
  distance:    0.0125448
  band:
  - # 1
    frequency:   -0.5002866750
  - # 2
    frequency:    0.9636134855
  - # 3
    frequency:    1.0482714698
  - # 4
    frequency:    1.4725634142
  - # 5
    frequency:    1.9523971507
  - # 6
    frequency:    2.0378727217
  - # 7
    frequency:    2.1206915579
  - # 8
    frequency:    2.4701402197
  - # 9
    frequency:    2.8772197562
  - # 10
    frequency:    3.5043286151
  - # 11
    frequency:    5.0013280646
  - # 12
    frequency:    5.3937051154
  - # 13
    frequency:    5.8633142629
  - # 14
    frequency:    6.0302199158
  - # 15
    frequency:    6.7563244964
  - # 16
    frequency:    7.7520048737
  - # 17
    frequency:    9.7735629950
  - # 18
    frequency:   10.2663362112
  - # 19
    frequency:   11.2433381294
  - # 20
    frequency:   12.0116774139
  - # 21
    frequency:   15.8205368273
  - # 22
    frequency:   16.5451833680
  - # 23
    frequency:   17.1617715429
  - # 24
    frequency:   18.1693516982

- q-position: [   -0.4854496,   -0.4854496,    0.3762979 ]
  distance:    0.0135902
  band:
  - # 1
    frequency:   -0.5031626925
  - # 2
    frequency:    0.9648361117
  - # 3
    frequency:    1.0466899868
  - # 4
    frequency:    1.4747530021
  - # 5
    frequency:    1.9479827149
  - # 6
    frequency:    2.0280662050
  - # 7
    frequency:    2.1244088153
  - # 8
    frequency:    2.4666149235
  - # 9
    frequency:    2.8788008638
  - # 10
    frequency:    3.5024675434
  - # 11
    frequency:    4.9887063739
  - # 12
    frequency:    5.3993105821
  - # 13
    frequency:    5.8651504407
  - # 14
    frequency:    6.0311780183
  - # 15
    frequency:    6.7635084058
  - # 16
    frequency:    7.7466683139
  - # 17
    frequency:    9.7766907013
  - # 18
    frequency:   10.2667094423
  - # 19
    frequency:   11.2372494898
  - # 20
    frequency:   12.0100172822
  - # 21
    frequency:   15.8202985068
  - # 22
    frequency:   16.5412946997
  - # 23
    frequency:   17.1644282061
  - # 24
    frequency:   18.1662409072

- q-position: [   -0.4798697,   -0.4798697,    0.3719726 ]
  distance:    0.0146356
  band:
  - # 1
    frequency:   -0.5064058538
  - # 2
    frequency:    0.9662161751
  - # 3
    frequency:    1.0450725428
  - # 4
    frequency:    1.4767713499
  - # 5
    frequency:    1.9433979461
  - # 6
    frequency:    2.0174236927
  - # 7
    frequency:    2.1279864039
  - # 8
    frequency:    2.4627751815
  - # 9
    frequency:    2.8802051857
  - # 10
    frequency:    3.5009638553
  - # 11
    frequency:    4.9753340620
  - # 12
    frequency:    5.4049134862
  - # 13
    frequency:    5.8673430546
  - # 14
    frequency:    6.0321868676
  - # 15
    frequency:    6.7708658001
  - # 16
    frequency:    7.7411837091
  - # 17
    frequency:    9.7798617789
  - # 18
    frequency:   10.2670255015
  - # 19
    frequency:   11.2299587500
  - # 20
    frequency:   12.0088067516
  - # 21
    frequency:   15.8202138350
  - # 22
    frequency:   16.5371157890
  - # 23
    frequency:   17.1676558918
  - # 24
    frequency:   18.1627917855

- q-position: [   -0.4742898,   -0.4742898,    0.3676473 ]
  distance:    0.0156810
  band:
  - # 1
    frequency:   -0.5099960903
  - # 2
    frequency:    0.9677424832
  - # 3
    frequency:    1.0434117134
  - # 4
    frequency:    1.4786131747
  - # 5
    frequency:    1.9386475784
  - # 6
    frequency:    2.0059637677
  - # 7
    frequency:    2.1314222741
  - # 8
    frequency:    2.4586067648
  - # 9
    frequency:    2.8814289644
  - # 10
    frequency:    3.4998202441
  - # 11
    frequency:    4.9612962698
  - # 12
    frequency:    5.4105075894
  - # 13
    frequency:    5.8698914536
  - # 14
    frequency:    6.0332295413
  - # 15
    frequency:    6.7783600295
  - # 16
    frequency:    7.7355551529
  - # 17
    frequency:    9.7830738890
  - # 18
    frequency:   10.2672829429
  - # 19
    frequency:   11.2214837999
  - # 20
    frequency:   12.0080732488
  - # 21
    frequency:   15.8202875579
  - # 22
    frequency:   16.5326721730
  - # 23
    frequency:   17.1714661622
  - # 24
    frequency:   18.1590152579

- q-position: [   -0.4687099,   -0.4687099,    0.3633221 ]
  distance:    0.0167264
  band:
  - # 1
    frequency:   -0.5139118797
  - # 2
    frequency:    0.9694030144
  - # 3
    frequency:    1.0416995480
  - # 4
    frequency:    1.4802731379
  - # 5
    frequency:    1.9337360239
  - # 6
    frequency:    1.9937061228
  - # 7
    frequency:    2.1347151569
  - # 8
    frequency:    2.4540963685
  - # 9
    frequency:    2.8824691172
  - # 10
    frequency:    3.4990387301
  - # 11
    frequency:    4.9466754652
  - # 12
    frequency:    5.4160878839
  - # 13
    frequency:    5.8727946453
  - # 14
    frequency:    6.0342915814
  - # 15
    frequency:    6.7859560389
  - # 16
    frequency:    7.7297867270
  - # 17
    frequency:    9.7863246666
  - # 18
    frequency:   10.2674803974
  - # 19
    frequency:   11.2118497518
  - # 20
    frequency:   12.0078393798
  - # 21
    frequency:   15.8205242750
  - # 22
    frequency:   16.5279902608
  - # 23
    frequency:   17.1758706437
  - # 24
    frequency:   18.1549227792

- q-position: [   -0.4631301,   -0.4631301,    0.3589968 ]
  distance:    0.0177718
  band:
  - # 1
    frequency:   -0.5181305385
  - # 2
    frequency:    0.9711849344
  - # 3
    frequency:    1.0399276301
  - # 4
    frequency:    1.4817457239
  - # 5
    frequency:    1.9286674546
  - # 6
    frequency:    1.9806713767
  - # 7
    frequency:    2.1378644699
  - # 8
    frequency:    2.4492320167
  - # 9
    frequency:    2.8833231144
  - # 10
    frequency:    3.4986207137
  - # 11
    frequency:    4.9315509819
  - # 12
    frequency:    5.4216504164
  - # 13
    frequency:    5.8760512952
  - # 14
    frequency:    6.0353612150
  - # 15
    frequency:    6.7936207582
  - # 16
    frequency:    7.7238824974
  - # 17
    frequency:    9.7896117188
  - # 18
    frequency:   10.2676165797
  - # 19
    frequency:   11.2010886333
  - # 20
    frequency:   12.0081229924
  - # 21
    frequency:   15.8209283632
  - # 22
    frequency:   16.5230970362
  - # 23
    frequency:   17.1808811608
  - # 24
    frequency:   18.1505263044

- q-position: [   -0.4575502,   -0.4575502,    0.3546716 ]
  distance:    0.0188172
  band:
  - # 1
    frequency:   -0.5226285077
  - # 2
    frequency:    0.9730746042
  - # 3
    frequency:    1.0380871390
  - # 4
    frequency:    1.4830251104
  - # 5
    frequency:    1.9234458659
  - # 6
    frequency:    1.9668809129
  - # 7
    frequency:    2.1408702425
  - # 8
    frequency:    2.4440034425
  - # 9
    frequency:    2.8839888560
  - # 10
    frequency:    3.4985670440
  - # 11
    frequency:    4.9159986562
  - # 12
    frequency:    5.4271921527
  - # 13
    frequency:    5.8796597267
  - # 14
    frequency:    6.0364294522
  - # 15
    frequency:    6.8013234611
  - # 16
    frequency:    7.7178465120
  - # 17
    frequency:    9.7929326241
  - # 18
    frequency:   10.2676902942
  - # 19
    frequency:   11.1892389138
  - # 20
    frequency:   12.0089374013
  - # 21
    frequency:   15.8215039057
  - # 22
    frequency:   16.5180197661
  - # 23
    frequency:   17.1865098501
  - # 24
    frequency:   18.1458382598

- q-position: [   -0.4519703,   -0.4519703,    0.3503463 ]
  distance:    0.0198626
  band:
  - # 1
    frequency:   -0.5273816251
  - # 2
    frequency:    0.9750575810
  - # 3
    frequency:    1.0361689121
  - # 4
    frequency:    1.4841050305
  - # 5
    frequency:    1.9180751240
  - # 6
    frequency:    1.9523567491
  - # 7
    frequency:    2.1437330536
  - # 8
    frequency:    2.4384024401
  - # 9
    frequency:    2.8844645531
  - # 10
    frequency:    3.4988781009
  - # 11
    frequency:    4.9000905509
  - # 12
    frequency:    5.4327108774
  - # 13
    frequency:    5.8836179212
  - # 14
    frequency:    6.0374900766
  - # 15
    frequency:    6.8090360903
  - # 16
    frequency:    7.7116827968
  - # 17
    frequency:    9.7962849305
  - # 18
    frequency:   10.2677004413
  - # 19
    frequency:   11.1763448928
  - # 20
    frequency:   12.0102917452
  - # 21
    frequency:   15.8222546292
  - # 22
    frequency:   16.5127857171
  - # 23
    frequency:   17.1927692472
  - # 24
    frequency:   18.1408715163

- q-position: [   -0.4463904,   -0.4463904,    0.3460210 ]
  distance:    0.0209080
  band:
  - # 1
    frequency:   -0.5323653797
  - # 2
    frequency:    0.9771186075
  - # 3
    frequency:    1.0341635087
  - # 4
    frequency:    1.4849786262
  - # 5
    frequency:    1.9125590034
  - # 6
    frequency:    1.9371214423
  - # 7
    frequency:    2.1464539808
  - # 8
    frequency:    2.4324231816
  - # 9
    frequency:    2.8847486162
  - # 10
    frequency:    3.4995538855
  - # 11
    frequency:    4.8838947585
  - # 12
    frequency:    5.4382051213
  - # 13
    frequency:    5.8879235196
  - # 14
    frequency:    6.0385395454
  - # 15
    frequency:    6.8167335495
  - # 16
    frequency:    7.7053953536
  - # 17
    frequency:    9.7996661548
  - # 18
    frequency:   10.2676460239
  - # 19
    frequency:   11.1624559876
  - # 20
    frequency:   12.0121914393
  - # 21
    frequency:   15.8231838516
  - # 22
    frequency:   16.5074218876
  - # 23
    frequency:   17.1996723422
  - # 24
    frequency:   18.1356393675

- q-position: [   -0.4408105,   -0.4408105,    0.3416958 ]
  distance:    0.0219534
  band:
  - # 1
    frequency:   -0.5375551438
  - # 2
    frequency:    0.9792415912
  - # 3
    frequency:    1.0320612719
  - # 4
    frequency:    1.4856382906
  - # 5
    frequency:    1.9069012141
  - # 6
    frequency:    1.9211980346
  - # 7
    frequency:    2.1490345559
  - # 8
    frequency:    2.4260624986
  - # 9
    frequency:    2.8848395570
  - # 10
    frequency:    3.5005941166
  - # 11
    frequency:    4.8674752728
  - # 12
    frequency:    5.4436741099
  - # 13
    frequency:    5.8925738240
  - # 14
    frequency:    6.0395768147
  - # 15
    frequency:    6.8243939620
  - # 16
    frequency:    7.6989881567
  - # 17
    frequency:    9.8030737815
  - # 18
    frequency:   10.2675261527
  - # 19
    frequency:   11.1476259605
  - # 20
    frequency:   12.0146386863
  - # 21
    frequency:   15.8242944397
  - # 22
    frequency:   16.5019547588
  - # 23
    frequency:   17.2072325970
  - # 24
    frequency:   18.1301555108

- q-position: [   -0.4352307,   -0.4352307,    0.3373705 ]
  distance:    0.0229988
  band:
  - # 1
    frequency:   -0.5429263811
  - # 2
    frequency:    0.9814095691
  - # 3
    frequency:    1.0298523897
  - # 4
    frequency:    1.4860754959
  - # 5
    frequency:    1.9011054240
  - # 6
    frequency:    1.9046100475
  - # 7
    frequency:    2.1514767267
  - # 8
    frequency:    2.4193201242
  - # 9
    frequency:    2.8847359036
  - # 10
    frequency:    3.5019983280
  - # 11
    frequency:    4.8508919196
  - # 12
    frequency:    5.4491177264
  - # 13
    frequency:    5.8975658002
  - # 14
    frequency:    6.0406031061
  - # 15
    frequency:    6.8319988957
  - # 16
    frequency:    7.6924651507
  - # 17
    frequency:    9.8065052615
  - # 18
    frequency:   10.2673400527
  - # 19
    frequency:   11.1319121213
  - # 20
    frequency:   12.0176330083
  - # 21
    frequency:   15.8255887794
  - # 22
    frequency:   16.4964100672
  - # 23
    frequency:   17.2154639231
  - # 24
    frequency:   18.1244340356

- q-position: [   -0.4296508,   -0.4296508,    0.3330452 ]
  distance:    0.0240442
  band:
  - # 1
    frequency:   -0.5484548294
  - # 2
    frequency:    0.9836046594
  - # 3
    frequency:    1.0275269544
  - # 4
    frequency:    1.4862806038
  - # 5
    frequency:    1.8873815316
  - # 6
    frequency:    1.8951752749
  - # 7
    frequency:    2.1537828229
  - # 8
    frequency:    2.4121988982
  - # 9
    frequency:    2.8844361337
  - # 10
    frequency:    3.5037659634
  - # 11
    frequency:    4.8342003386
  - # 12
    frequency:    5.4545364832
  - # 13
    frequency:    5.9028960807
  - # 14
    frequency:    6.0416216281
  - # 15
    frequency:    6.8395335569
  - # 16
    frequency:    7.6858302479
  - # 17
    frequency:    9.8099580119
  - # 18
    frequency:   10.2670870682
  - # 19
    frequency:   11.1153745390
  - # 20
    frequency:   12.0211717687
  - # 21
    frequency:   15.8270687578
  - # 22
    frequency:   16.4908126029
  - # 23
    frequency:   17.2243806146
  - # 24
    frequency:   18.1184894190

- q-position: [   -0.4240709,   -0.4240709,    0.3287200 ]
  distance:    0.0250896
  band:
  - # 1
    frequency:   -0.5541166567
  - # 2
    frequency:    0.9858079957
  - # 3
    frequency:    1.0250750190
  - # 4
    frequency:    1.4862426475
  - # 5
    frequency:    1.8695371848
  - # 6
    frequency:    1.8891143954
  - # 7
    frequency:    2.1559555251
  - # 8
    frequency:    2.4047049320
  - # 9
    frequency:    2.8839386255
  - # 10
    frequency:    3.5058964656
  - # 11
    frequency:    4.8174520073
  - # 12
    frequency:    5.4599314980
  - # 13
    frequency:    5.9085609683
  - # 14
    frequency:    6.0426372628
  - # 15
    frequency:    6.8469869525
  - # 16
    frequency:    7.6790873259
  - # 17
    frequency:    9.8134294146
  - # 18
    frequency:   10.2667666688
  - # 19
    frequency:   11.0980752875
  - # 20
    frequency:   12.0252506585
  - # 21
    frequency:   15.8287357572
  - # 22
    frequency:   16.4851860335
  - # 23
    frequency:   17.2339972359
  - # 24
    frequency:   18.1123365308

- q-position: [   -0.4184910,   -0.4184910,    0.3243947 ]
  distance:    0.0261350
  band:
  - # 1
    frequency:   -0.5598885931
  - # 2
    frequency:    0.9879996433
  - # 3
    frequency:    1.0224866509
  - # 4
    frequency:    1.4859490761
  - # 5
    frequency:    1.8511025547
  - # 6
    frequency:    1.8829264111
  - # 7
    frequency:    2.1579978348
  - # 8
    frequency:    2.3968477371
  - # 9
    frequency:    2.8832416277
  - # 10
    frequency:    3.5083893561
  - # 11
    frequency:    4.8006943001
  - # 12
    frequency:    5.4653044719
  - # 13
    frequency:    5.9145564404
  - # 14
    frequency:    6.0436562302
  - # 15
    frequency:    6.8543520232
  - # 16
    frequency:    7.6722402252
  - # 17
    frequency:    9.8169168164
  - # 18
    frequency:   10.2663784546
  - # 19
    frequency:   11.0800777455
  - # 20
    frequency:   12.0298641293
  - # 21
    frequency:   15.8305906613
  - # 22
    frequency:   16.4795527572
  - # 23
    frequency:   17.2443284618
  - # 24
    frequency:   18.1059906508

- q-position: [   -0.4129111,   -0.4129111,    0.3200694 ]
  distance:    0.0271804
  band:
  - # 1
    frequency:   -0.5657480378
  - # 2
    frequency:    0.9901584966
  - # 3
    frequency:    1.0197519830
  - # 4
    frequency:    1.4853854406
  - # 5
    frequency:    1.8321043469
  - # 6
    frequency:    1.8766149524
  - # 7
    frequency:    2.1599130478
  - # 8
    frequency:    2.3886403142
  - # 9
    frequency:    2.8823432472
  - # 10
    frequency:    3.5112443024
  - # 11
    frequency:    4.7839705756
  - # 12
    frequency:    5.4706576665
  - # 13
    frequency:    5.9208781540
  - # 14
    frequency:    6.0446857358
  - # 15
    frequency:    6.8616257479
  - # 16
    frequency:    7.6652927472
  - # 17
    frequency:    9.8204175279
  - # 18
    frequency:   10.2659221609
  - # 19
    frequency:   11.0614459617
  - # 20
    frequency:   12.0350057626
  - # 21
    frequency:   15.8326338703
  - # 22
    frequency:   16.4739337852
  - # 23
    frequency:   17.2553888680
  - # 24
    frequency:   18.0994675020

- q-position: [   -0.4073313,   -0.4073313,    0.3157442 ]
  distance:    0.0282258
  band:
  - # 1
    frequency:   -0.5716731441
  - # 2
    frequency:    0.9922621529
  - # 3
    frequency:    1.0168612601
  - # 4
    frequency:    1.4845349944
  - # 5
    frequency:    1.8125708737
  - # 6