nqpoint: 459    
npath: 9      
segment_nqpoint:
- 51
- 51
- 51
- 51
- 51
- 51
- 51
- 51
- 51
labels:
- [ '$\Gamma$', '$\mathrm{C}$' ]
- [ '$\mathrm{C_2}$', '$\mathrm{Y_2}$' ]
- [ '$\mathrm{Y_2}$', '$\Gamma$' ]
- [ '$\Gamma$', '$\mathrm{M_2}$' ]
- [ '$\mathrm{M_2}$', '$\mathrm{D}$' ]
- [ '$\mathrm{D_2}$', '$\mathrm{A}$' ]
- [ '$\mathrm{A}$', '$\Gamma$' ]
- [ '$\mathrm{L_2}$', '$\Gamma$' ]
- [ '$\Gamma$', '$\mathrm{V_2}$' ]
reciprocal_lattice:
- [  -0.26667527,   0.07909002,  -0.02810285 ] # a*
- [   0.26667527,   0.07909002,  -0.02810285 ] # b*
- [   0.00000000,   0.00000000,  -0.12618490 ] # c*
natom: 13     
lattice:
- [    -1.874939487660668,     6.321910143252437,     0.000000000000000 ] # a
- [     1.874939487660668,     6.321910143252436,     0.000000000000000 ] # b
- [     0.000000000000000,    -2.815926637805024,    -7.924878772584305 ] # c
points:
- symbol: Nd # 1
  coordinates: [  0.341997918019874,  0.341997918019874,  0.681585596046189 ]
  mass: 144.242000
- symbol: Nd # 2
  coordinates: [  0.658002081980126,  0.658002081980127,  0.318414403953811 ]
  mass: 144.242000
- symbol: Nd # 3
  coordinates: [  0.642344704626285,  0.642344704626285,  0.833259935898222 ]
  mass: 144.242000
- symbol: Nd # 4
  coordinates: [  0.357655295373715,  0.357655295373715,  0.166740064101778 ]
  mass: 144.242000
- symbol: Cu # 5
  coordinates: [  0.000000000000000,  0.000000000000000,  0.000000000000000 ]
  mass: 63.546000
- symbol: Cu # 6
  coordinates: [  0.000000000000000,  0.000000000000000,  0.500000000000000 ]
  mass: 63.546000
- symbol: O # 7
  coordinates: [  0.009710077707269,  0.009710077707269,  0.290225517997279 ]
  mass: 15.999400
- symbol: O # 8
  coordinates: [  0.275181410783313,  0.275181410783313,  0.384718699784625 ]
  mass: 15.999400
- symbol: O # 9
  coordinates: [  0.500000000000000,  0.500000000000000,  0.000000000000000 ]
  mass: 15.999400
- symbol: O # 10
  coordinates: [  0.746944844210924,  0.746944844210924,  0.119528297768937 ]
  mass: 15.999400
- symbol: O # 11
  coordinates: [  0.724818589216687,  0.724818589216688,  0.615281300215375 ]
  mass: 15.999400
- symbol: O # 12
  coordinates: [  0.253055155789076,  0.253055155789076,  0.880471702231064 ]
  mass: 15.999400
- symbol: O # 13
  coordinates: [  0.990289922292732,  0.990289922292731,  0.709774482002721 ]
  mass: 15.999400

phonon:
- q-position: [    0.0000000,    0.0000000,    0.0000000 ]
  distance:    0.0000000
  band:
  - # 1
    frequency:   -0.0000001421
  - # 2
    frequency:   -0.0000000957
  - # 3
    frequency:    0.0000001253
  - # 4
    frequency:    2.4235401014
  - # 5
    frequency:    2.7221280575
  - # 6
    frequency:    2.8626322679
  - # 7
    frequency:    2.8684061530
  - # 8
    frequency:    2.9594767330
  - # 9
    frequency:    2.9668802645
  - # 10
    frequency:    3.3178203693
  - # 11
    frequency:    3.4253737048
  - # 12
    frequency:    3.5040146985
  - # 13
    frequency:    3.5503806139
  - # 14
    frequency:    3.9287558130
  - # 15
    frequency:    4.3758657350
  - # 16
    frequency:    5.2451149016
  - # 17
    frequency:    5.3951135302
  - # 18
    frequency:    5.4830755367
  - # 19
    frequency:    5.7446388271
  - # 20
    frequency:    6.2640765131
  - # 21
    frequency:    6.5783231778
  - # 22
    frequency:    7.2603506835
  - # 23
    frequency:    8.3132607797
  - # 24
    frequency:    9.3761289561
  - # 25
    frequency:    9.7897307140
  - # 26
    frequency:   10.6418483051
  - # 27
    frequency:   10.8830773721
  - # 28
    frequency:   11.4551437530
  - # 29
    frequency:   11.9824095139
  - # 30
    frequency:   12.5897398919
  - # 31
    frequency:   12.7292945281
  - # 32
    frequency:   14.1080166815
  - # 33
    frequency:   14.3559233015
  - # 34
    frequency:   15.0190613630
  - # 35
    frequency:   15.0604940308
  - # 36
    frequency:   16.8033402774
  - # 37
    frequency:   17.2555413040
  - # 38
    frequency:   18.6143869206
  - # 39
    frequency:   19.5596821061

- q-position: [    0.0054953,    0.0054953,    0.0000000 ]
  distance:    0.0009225
  band:
  - # 1
    frequency:    0.0347382129
  - # 2
    frequency:    0.0635394290
  - # 3
    frequency:    0.1112068874
  - # 4
    frequency:    2.4239615101
  - # 5
    frequency:    2.7222339776
  - # 6
    frequency:    2.8605575976
  - # 7
    frequency:    2.8703331725
  - # 8
    frequency:    2.9594104027
  - # 9
    frequency:    2.9668864122
  - # 10
    frequency:    3.3174909527
  - # 11
    frequency:    3.4259228489
  - # 12
    frequency:    3.5039954485
  - # 13
    frequency:    3.5506602820
  - # 14
    frequency:    3.9287702832
  - # 15
    frequency:    4.3821159132
  - # 16
    frequency:    5.2452337504
  - # 17
    frequency:    5.3951448220
  - # 18
    frequency:    5.4828524667
  - # 19
    frequency:    5.7448279288
  - # 20
    frequency:    6.2639566413
  - # 21
    frequency:    6.5782262257
  - # 22
    frequency:    7.2610189021
  - # 23
    frequency:    8.3130611298
  - # 24
    frequency:    9.3766509664
  - # 25
    frequency:    9.7900438638
  - # 26
    frequency:   10.6416083197
  - # 27
    frequency:   10.8830627238
  - # 28
    frequency:   11.4555735341
  - # 29
    frequency:   11.9824304189
  - # 30
    frequency:   12.5892986949
  - # 31
    frequency:   12.7293414567
  - # 32
    frequency:   14.1080425257
  - # 33
    frequency:   14.3557303079
  - # 34
    frequency:   15.0183081860
  - # 35
    frequency:   15.0611324219
  - # 36
    frequency:   16.8021961702
  - # 37
    frequency:   17.2552478968
  - # 38
    frequency:   18.6126933248
  - # 39
    frequency:   19.5596652806

- q-position: [    0.0109906,    0.0109906,    0.0000000 ]
  distance:    0.0018450
  band:
  - # 1
    frequency:    0.0694260191
  - # 2
    frequency:    0.1270353354
  - # 3
    frequency:    0.2213431771
  - # 4
    frequency:    2.4252248110
  - # 5
    frequency:    2.7225458756
  - # 6
    frequency:    2.8567684236
  - # 7
    frequency:    2.8736862517
  - # 8
    frequency:    2.9592135419
  - # 9
    frequency:    2.9669028246
  - # 10
    frequency:    3.3165077425
  - # 11
    frequency:    3.4275389504
  - # 12
    frequency:    3.5039577114
  - # 13
    frequency:    3.5514942810
  - # 14
    frequency:    3.9288141512
  - # 15
    frequency:    4.4008405860
  - # 16
    frequency:    5.2456007394
  - # 17
    frequency:    5.3952386661
  - # 18
    frequency:    5.4821935456
  - # 19
    frequency:    5.7453927488
  - # 20
    frequency:    6.2635973107
  - # 21
    frequency:    6.5779359022
  - # 22
    frequency:    7.2630218458
  - # 23
    frequency:    8.3124635461
  - # 24
    frequency:    9.3782149489
  - # 25
    frequency:    9.7909810872
  - # 26
    frequency:   10.6408895506
  - # 27
    frequency:   10.8830188175
  - # 28
    frequency:   11.4568606200
  - # 29
    frequency:   11.9824931297
  - # 30
    frequency:   12.5879762361
  - # 31
    frequency:   12.7294821795
  - # 32
    frequency:   14.1081200301
  - # 33
    frequency:   14.3551513665
  - # 34
    frequency:   15.0161788253
  - # 35
    frequency:   15.0629174262
  - # 36
    frequency:   16.7987713544
  - # 37
    frequency:   17.2543649076
  - # 38
    frequency:   18.6076163352
  - # 39
    frequency:   19.5596148269

- q-position: [    0.0164860,    0.0164860,    0.0000000 ]
  distance:    0.0027675
  band:
  - # 1
    frequency:    0.1040133076
  - # 2
    frequency:    0.1904440023
  - # 3
    frequency:    0.3293756620
  - # 4
    frequency:    2.4273272182
  - # 5
    frequency:    2.7230467471
  - # 6
    frequency:    2.8524582746
  - # 7
    frequency:    2.8772916626
  - # 8
    frequency:    2.9588919941
  - # 9
    frequency:    2.9669239566
  - # 10
    frequency:    3.3148854746
  - # 11
    frequency:    3.4301258176
  - # 12
    frequency:    3.5039655794
  - # 13
    frequency:    3.5528679778
  - # 14
    frequency:    3.9288887703
  - # 15
    frequency:    4.4319535067
  - # 16
    frequency:    5.2462489873
  - # 17
    frequency:    5.3953949696
  - # 18
    frequency:    5.4811311057
  - # 19
    frequency:    5.7463260865
  - # 20
    frequency:    6.2629993818
  - # 21
    frequency:    6.5774538049
  - # 22
    frequency:    7.2663544680
  - # 23
    frequency:    8.3114721068
  - # 24
    frequency:    9.3808147711
  - # 25
    frequency:    9.7925357255
  - # 26
    frequency:   10.6396955464
  - # 27
    frequency:   10.8829457678
  - # 28
    frequency:   11.4589982747
  - # 29
    frequency:   11.9825976342
  - # 30
    frequency:   12.5857759011
  - # 31
    frequency:   12.7297165071
  - # 32
    frequency:   14.1082491107
  - # 33
    frequency:   14.3541866008
  - # 34
    frequency:   15.0129698226
  - # 35
    frequency:   15.0655525093
  - # 36
    frequency:   16.7930880148
  - # 37
    frequency:   17.2528843426
  - # 38
    frequency:   18.5991673637
  - # 39
    frequency:   19.5595308138

- q-position: [    0.0219813,    0.0219813,    0.0000000 ]
  distance:    0.0036900
  band:
  - # 1
    frequency:    0.1384505576
  - # 2
    frequency:    0.2537213113
  - # 3
    frequency:    0.4343443833
  - # 4
    frequency:    2.4302640568
  - # 5
    frequency:    2.7237100835
  - # 6
    frequency:    2.8477875917
  - # 7
    frequency:    2.8810195749
  - # 8
    frequency:    2.9584539796
  - # 9
    frequency:    2.9669420853
  - # 10
    frequency:    3.3126475013
  - # 11
    frequency:    3.4335152622
  - # 12
    frequency:    3.5041393537
  - # 13
    frequency:    3.5547581918
  - # 14
    frequency:    3.9289963427
  - # 15
    frequency:    4.4752819598
  - # 16
    frequency:    5.2472403089
  - # 17
    frequency:    5.3956135771
  - # 18
    frequency:    5.4797245007
  - # 19
    frequency:    5.7476168025
  - # 20
    frequency:    6.2621643108
  - # 21
    frequency:    6.5767825943
  - # 22
    frequency:    7.2710086632
  - # 23
    frequency:    8.3100935433
  - # 24
    frequency:    9.3844402554
  - # 25
    frequency:    9.7946967469
  - # 26
    frequency:   10.6380321834
  - # 27
    frequency:   10.8828437654
  - # 28
    frequency:   11.4619753908
  - # 29
    frequency:   11.9827439115
  - # 30
    frequency:   12.5827032972
  - # 31
    frequency:   12.7300441246
  - # 32
    frequency:   14.1084296274
  - # 33
    frequency:   14.3528362341
  - # 34
    frequency:   15.0089866181
  - # 35
    frequency:   15.0687322516
  - # 36
    frequency:   16.7851820577
  - # 37
    frequency:   17.2507938695
  - # 38
    frequency:   18.5873654922
  - # 39
    frequency:   19.5594133558

- q-position: [    0.0274766,    0.0274766,    0.0000000 ]
  distance:    0.0046125
  band:
  - # 1
    frequency:    0.1726891297
  - # 2
    frequency:    0.3168225090
  - # 3
    frequency:    0.5353952245
  - # 4
    frequency:    2.4340287152
  - # 5
    frequency:    2.7245022719
  - # 6
    frequency:    2.8427945909
  - # 7
    frequency:    2.8848701889
  - # 8
    frequency:    2.9579086118
  - # 9
    frequency:    2.9669487925
  - # 10
    frequency:    3.3098241927
  - # 11
    frequency:    3.4374546567
  - # 12
    frequency:    3.5046746805
  - # 13
    frequency:    3.5571347929
  - # 14
    frequency:    3.9291398728
  - # 15
    frequency:    4.5305219236
  - # 16
    frequency:    5.2486777682
  - # 17
    frequency:    5.3958942709
  - # 18
    frequency:    5.4780706764
  - # 19
    frequency:    5.7492511862
  - # 20
    frequency:    6.2610941868
  - # 21
    frequency:    6.5759259896
  - # 22
    frequency:    7.2769737475
  - # 23
    frequency:    8.3083371484
  - # 24
    frequency:    9.3890772397
  - # 25
    frequency:    9.7974488404
  - # 26
    frequency:   10.6359076166
  - # 27
    frequency:   10.8827130759
  - # 28
    frequency:   11.4657766620
  - # 29
    frequency:   11.9829319318
  - # 30
    frequency:   12.5787661997
  - # 31
    frequency:   12.7304645920
  - # 32
    frequency:   14.1086613843
  - # 33
    frequency:   14.3511006160
  - # 34
    frequency:   15.0044663521
  - # 35
    frequency:   15.0722195587
  - # 36
    frequency:   16.7751016403
  - # 37
    frequency:   17.2480781713
  - # 38
    frequency:   18.5722375665
  - # 39
    frequency:   19.5592626127

- q-position: [    0.0329719,    0.0329719,    0.0000000 ]
  distance:    0.0055350
  band:
  - # 1
    frequency:    0.2066815519
  - # 2
    frequency:    0.3797019309
  - # 3
    frequency:    0.6318072731
  - # 4
    frequency:    2.4386125817
  - # 5
    frequency:    2.7253853484
  - # 6
    frequency:    2.8375062385
  - # 7
    frequency:    2.8888595008
  - # 8
    frequency:    2.9572647679
  - # 9
    frequency:    2.9669360945
  - # 10
    frequency:    3.3064510619
  - # 11
    frequency:    3.4415937351
  - # 12
    frequency:    3.5058624716
  - # 13
    frequency:    3.5599625762
  - # 14
    frequency:    3.9293231389
  - # 15
    frequency:    4.5971682905
  - # 16
    frequency:    5.2507301054
  - # 17
    frequency:    5.3962367703
  - # 18
    frequency:    5.4763252267
  - # 19
    frequency:    5.7512150911
  - # 20
    frequency:    6.2597917933
  - # 21
    frequency:    6.5748887640
  - # 22
    frequency:    7.2842371799
  - # 23
    frequency:    8.3062146611
  - # 24
    frequency:    9.3947076584
  - # 25
    frequency:    9.8007725399
  - # 26
    frequency:   10.6333322273
  - # 27
    frequency:   10.8825540382
  - # 28
    frequency:   11.4703828121
  - # 29
    frequency:   11.9831616552
  - # 30
    frequency:   12.5739744769
  - # 31
    frequency:   12.7309773452
  - # 32
    frequency:   14.1089441298
  - # 33
    frequency:   14.3489802603
  - # 34
    frequency:   14.9995736516
  - # 35
    frequency:   15.0758498919
  - # 36
    frequency:   16.7629053461
  - # 37
    frequency:   17.2447206070
  - # 38
    frequency:   18.5538183290
  - # 39
    frequency:   19.5590787898

- q-position: [    0.0384672,    0.0384672,    0.0000000 ]
  distance:    0.0064575
  band:
  - # 1
    frequency:    0.2403817994
  - # 2
    frequency:    0.4423126582
  - # 3
    frequency:    0.7230129300
  - # 4
    frequency:    2.4440049674
  - # 5
    frequency:    2.7263196871
  - # 6
    frequency:    2.8319558207
  - # 7
    frequency:    2.8929987723
  - # 8
    frequency:    2.9565304624
  - # 9
    frequency:    2.9668970672
  - # 10
    frequency:    3.3025668569
  - # 11
    frequency:    3.4454893839
  - # 12
    frequency:    3.5080895715
  - # 13
    frequency:    3.5632031696
  - # 14
    frequency:    3.9295506847
  - # 15
    frequency:    4.6744008133
  - # 16
    frequency:    5.2536799179
  - # 17
    frequency:    5.3966407316
  - # 18
    frequency:    5.4747452270
  - # 19
    frequency:    5.7534972807
  - # 20
    frequency:    6.2582607065
  - # 21
    frequency:    6.5736767373
  - # 22
    frequency:    7.2927855795
  - # 23
    frequency:    8.3037401408
  - # 24
    frequency:    9.4013096360
  - # 25
    frequency:    9.8046443681
  - # 26
    frequency:   10.6303185836
  - # 27
    frequency:   10.8823670633
  - # 28
    frequency:   11.4757708708
  - # 29
    frequency:   11.9834330307
  - # 30
    frequency:   12.5683399932
  - # 31
    frequency:   12.7315816969
  - # 32
    frequency:   14.1092775569
  - # 33
    frequency:   14.3464758945
  - # 34
    frequency:   14.9944196191
  - # 35
    frequency:   15.0795122999
  - # 36
    frequency:   16.7486601820
  - # 37
    frequency:   17.2407050043
  - # 38
    frequency:   18.5321505918
  - # 39
    frequency:   19.5588621370

- q-position: [    0.0439626,    0.0439626,    0.0000000 ]
  distance:    0.0073800
  band:
  - # 1
    frequency:    0.2737455651
  - # 2
    frequency:    0.5046060789
  - # 3
    frequency:    0.8086091036
  - # 4
    frequency:    2.4501930168
  - # 5
    frequency:    2.7272662799
  - # 6
    frequency:    2.8261845332
  - # 7
    frequency:    2.8972906351
  - # 8
    frequency:    2.9557126312
  - # 9
    frequency:    2.9668260618
  - # 10
    frequency:    3.2982118150
  - # 11
    frequency:    3.4486650299
  - # 12
    frequency:    3.5117829594
  - # 13
    frequency:    3.5668167799
  - # 14
    frequency:    3.9298278262
  - # 15
    frequency:    4.7608736445
  - # 16
    frequency:    5.2580224241
  - # 17
    frequency:    5.3971057471
  - # 18
    frequency:    5.4737814954
  - # 19
    frequency:    5.7560950524
  - # 20
    frequency:    6.2565054574
  - # 21
    frequency:    6.5722967670
  - # 22
    frequency:    7.3026061288
  - # 23
    frequency:    8.3009298492
  - # 24
    frequency:    9.4088575902
  - # 25
    frequency:    9.8090369934
  - # 26
    frequency:   10.6268814291
  - # 27
    frequency:   10.8821526317
  - # 28
    frequency:   11.4819144843
  - # 29
    frequency:   11.9837459953
  - # 30
    frequency:   12.5618764907
  - # 31
    frequency:   12.7322768382
  - # 32
    frequency:   14.1096613034
  - # 33
    frequency:   14.3435885237
  - # 34
    frequency:   14.9890800988
  - # 35
    frequency:   15.0831311742
  - # 36
    frequency:   16.7324395594
  - # 37
    frequency:   17.2360174212
  - # 38
    frequency:   18.5072854524
  - # 39
    frequency:   19.5586129486

- q-position: [    0.0494579,    0.0494579,    0.0000000 ]
  distance:    0.0083024
  band:
  - # 1
    frequency:    0.3067305188
  - # 2
    frequency:    0.5665313091
  - # 3
    frequency:    0.8883586513
  - # 4
    frequency:    2.4571616127
  - # 5
    frequency:    2.7281883883
  - # 6
    frequency:    2.8202393702
  - # 7
    frequency:    2.9017296775
  - # 8
    frequency:    2.9548171617
  - # 9
    frequency:    2.9667186738
  - # 10
    frequency:    3.2934262037
  - # 11
    frequency:    3.4507419084
  - # 12
    frequency:    3.5172802240
  - # 13
    frequency:    3.5707636509
  - # 14
    frequency:    3.9301606631
  - # 15
    frequency:    4.8542751873
  - # 16
    frequency:    5.2646739622
  - # 17
    frequency:    5.3976313447
  - # 18
    frequency:    5.4742936418
  - # 19
    frequency:    5.7590248006
  - # 20
    frequency:    6.2545318089
  - # 21
    frequency:    6.5707567378
  - # 22
    frequency:    7.3136884932
  - # 23
    frequency:    8.2978021584
  - # 24
    frequency:    9.4173223356
  - # 25
    frequency:    9.8139193866
  - # 26
    frequency:   10.6230377201
  - # 27
    frequency:   10.8819112910
  - # 28
    frequency:   11.4887842472
  - # 29
    frequency:   11.9841004721
  - # 30
    frequency:   12.5545994486
  - # 31
    frequency:   12.7330618406
  - # 32
    frequency:   14.1100949523
  - # 33
    frequency:   14.3403195074
  - # 34
    frequency:   14.9836083445
  - # 35
    frequency:   15.0866536058
  - # 36
    frequency:   16.7143213879
  - # 37
    frequency:   17.2306477489
  - # 38
    frequency:   18.4792825532
  - # 39
    frequency:   19.5583315630

- q-position: [    0.0549532,    0.0549532,    0.0000000 ]
  distance:    0.0092249
  band:
  - # 1
    frequency:    0.3392965519
  - # 2
    frequency:    0.6280344097
  - # 3
    frequency:    0.9621824066
  - # 4
    frequency:    2.4648932758
  - # 5
    frequency:    2.7290524912
  - # 6
    frequency:    2.8141704205
  - # 7
    frequency:    2.9063043447
  - # 8
    frequency:    2.9538490355
  - # 9
    frequency:    2.9665715999
  - # 10
    frequency:    3.2882492005
  - # 11
    frequency:    3.4515685408
  - # 12
    frequency:    3.5247003898
  - # 13
    frequency:    3.5750051840
  - # 14
    frequency:    3.9305560911
  - # 15
    frequency:    4.9503461234
  - # 16
    frequency:    5.2753861338
  - # 17
    frequency:    5.3982169871
  - # 18
    frequency:    5.4780970207
  - # 19
    frequency:    5.7623447413
  - # 20
    frequency:    6.2523472534
  - # 21
    frequency:    6.5690655478
  - # 22
    frequency:    7.3260274633
  - # 23
    frequency:    8.2943775167
  - # 24
    frequency:    9.4266711819
  - # 25
    frequency:    9.8192569675
  - # 26
    frequency:   10.6188067288
  - # 27
    frequency:   10.8816436535
  - # 28
    frequency:   11.4963480477
  - # 29
    frequency:   11.9844963692
  - # 30
    frequency:   12.5465259211
  - # 31
    frequency:   12.7339356570
  - # 32
    frequency:   14.1105780321
  - # 33
    frequency:   14.3366706535
  - # 34
    frequency:   14.9780430108
  - # 35
    frequency:   15.0900414155
  - # 36
    frequency:   16.6943863686
  - # 37
    frequency:   17.2245910694
  - # 38
    frequency:   18.4482103883
  - # 39
    frequency:   19.5580183618

- q-position: [    0.0604485,    0.0604485,    0.0000000 ]
  distance:    0.0101474
  band:
  - # 1
    frequency:    0.3714060062
  - # 2
    frequency:    0.6890573081
  - # 3
    frequency:    1.0301433620
  - # 4
    frequency:    2.4733680661
  - # 5
    frequency:    2.7298285582
  - # 6
    frequency:    2.8080285750
  - # 7
    frequency:    2.9109989885
  - # 8
    frequency:    2.9528125010
  - # 9
    frequency:    2.9663824647
  - # 10
    frequency:    3.2827181081
  - # 11
    frequency:    3.4512309089
  - # 12
    frequency:    3.5339331267
  - # 13
    frequency:    3.5795047225
  - # 14
    frequency:    3.9310218131
  - # 15
    frequency:    5.0409592878
  - # 16
    frequency:    5.2931587447
  - # 17
    frequency:    5.3988620711
  - # 18
    frequency:    5.4894206668
  - # 19
    frequency:    5.7662122142
  - # 20
    frequency:    6.2499619685
  - # 21
    frequency:    6.5672330933
  - # 22
    frequency:    7.3396266354
  - # 23
    frequency:    8.2906785030
  - # 24
    frequency:    9.4368680199
  - # 25
    frequency:    9.8250117297
  - # 26
    frequency:   10.6142102317
  - # 27
    frequency:   10.8813503929
  - # 28
    frequency:   11.5045714128
  - # 29
    frequency:   11.9849335772
  - # 30
    frequency:   12.5376743527
  - # 31
    frequency:   12.7348971247
  - # 32
    frequency:   14.1111100173
  - # 33
    frequency:   14.3326443309
  - # 34
    frequency:   14.9724130888
  - # 35
    frequency:   15.0932662358
  - # 36
    frequency:   16.6727165298
  - # 37
    frequency:   17.2178487260
  - # 38
    frequency:   18.4141466595
  - # 39
    frequency:   19.5576737689

- q-position: [    0.0659438,    0.0659438,    0.0000000 ]
  distance:    0.0110699
  band:
  - # 1
    frequency:    0.4030238816
  - # 2
    frequency:    0.7495362811
  - # 3
    frequency:    1.0924255523
  - # 4
    frequency:    2.4825634896
  - # 5
    frequency:    2.7304897471
  - # 6
    frequency:    2.8018639623
  - # 7
    frequency:    2.9157955793
  - # 8
    frequency:    2.9517112374
  - # 9
    frequency:    2.9661496564
  - # 10
    frequency:    3.2768678657
  - # 11
    frequency:    3.4499496702
  - # 12
    frequency:    3.5447404521
  - # 13
    frequency:    3.5842280409
  - # 14
    frequency:    3.9315663519
  - # 15
    frequency:    5.1132689717
  - # 16
    frequency:    5.3197954673
  - # 17
    frequency:    5.3995659265
  - # 18
    frequency:    5.5180366391
  - # 19
    frequency:    5.7710603143
  - # 20
    frequency:    6.2473908095
  - # 21
    frequency:    6.5652702498
  - # 22
    frequency:    7.3545036338
  - # 23
    frequency:    8.2867300231
  - # 24
    frequency:    9.4478733855
  - # 25
    frequency:    9.8311423346
  - # 26
    frequency:   10.6092727988
  - # 27
    frequency:   10.8810322408
  - # 28
    frequency:   11.5134178477
  - # 29
    frequency:   11.9854119678
  - # 30
    frequency:   12.5280643743
  - # 31
    frequency:   12.7359449670
  - # 32
    frequency:   14.1116903289
  - # 33
    frequency:   14.3282436027
  - # 34
    frequency:   14.9667409851
  - # 35
    frequency:   15.0963064426
  - # 36
    frequency:   16.6493940159
  - # 37
    frequency:   17.2104290987
  - # 38
    frequency:   18.3771786852
  - # 39
    frequency:   19.5572982505

- q-position: [    0.0714392,    0.0714392,    0.0000000 ]
  distance:    0.0119924
  band:
  - # 1
    frequency:    0.4341180217
  - # 2
    frequency:    0.8093997885
  - # 3
    frequency:    1.1493106792
  - # 4
    frequency:    2.4924544140
  - # 5
    frequency:    2.7310116380
  - # 6
    frequency:    2.7957251523
  - # 7
    frequency:    2.9206749095
  - # 8
    frequency:    2.9505484947
  - # 9
    frequency:    2.9658721874
  - # 10
    frequency:    3.2707307979
  - # 11
    frequency:    3.4479733972
  - # 12
    frequency:    3.5568622607
  - # 13
    frequency:    3.5891435963
  - # 14
    frequency:    3.9321990642
  - # 15
    frequency:    5.1587997461
  - # 16
    frequency:    5.3468997111
  - # 17
    frequency:    5.4003278153
  - # 18
    frequency:    5.5784596075
  - # 19
    frequency:    5.7783222683
  - # 20
    frequency:    6.2446579251
  - # 21
    frequency:    6.5631888507
  - # 22
    frequency:    7.3706976791
  - # 23
    frequency:    8.2825597154
  - # 24
    frequency:    9.4596444944
  - # 25
    frequency:    9.8376041649
  - # 26
    frequency:   10.6040221994
  - # 27
    frequency:   10.8806899835
  - # 28
    frequency:   11.5228491644
  - # 29
    frequency:   11.9859313916
  - # 30
    frequency:   12.5177165766
  - # 31
    frequency:   12.7370777960
  - # 32
    frequency:   14.1123183347
  - # 33
    frequency:   14.3234723834
  - # 34
    frequency:   14.9610444927
  - # 35
    frequency:   15.0991451812
  - # 36
    frequency:   16.6245001141
  - # 37
    frequency:   17.2023481008
  - # 38
    frequency:   18.3374038631
  - # 39
    frequency:   19.5568923136

- q-position: [    0.0769345,    0.0769345,    0.0000000 ]
  distance:    0.0129149
  band:
  - # 1
    frequency:    0.4646592729
  - # 2
    frequency:    0.8685653244
  - # 3
    frequency:    1.2011555143
  - # 4
    frequency:    2.5030129999
  - # 5
    frequency:    2.7313710986
  - # 6
    frequency:    2.7896590766
  - # 7
    frequency:    2.9256172864
  - # 8
    frequency:    2.9493272056
  - # 9
    frequency:    2.9655495822
  - # 10
    frequency:    3.2643365447
  - # 11
    frequency:    3.4455253087
  - # 12
    frequency:    3.5700683888
  - # 13
    frequency:    3.5942225988
  - # 14
    frequency:    3.9329301626
  - # 15
    frequency:    5.1835722904
  - # 16
    frequency:    5.3627836125
  - # 17
    frequency:    5.4011469304
  - # 18
    frequency:    5.6683856804
  - # 19
    frequency:    5.7949549640
  - # 20
    frequency:    6.2418091252
  - # 21
    frequency:    6.5610016620
  - # 22
    frequency:    7.3882808367
  - # 23
    frequency:    8.2781986782
  - # 24
    frequency:    9.4721352365
  - # 25
    frequency:    9.8443493372
  - # 26
    frequency:   10.5984899349
  - # 27
    frequency:   10.8803244577
  - # 28
    frequency:   11.5328257930
  - # 29
    frequency:   11.9864916756
  - # 30
    frequency:   12.5066522667
  - # 31
    frequency:   12.7382941153
  - # 32
    frequency:   14.1129933503
  - # 33
    frequency:   14.3183356231
  - # 34
    frequency:   14.9553380976
  - # 35
    frequency:   15.1017690406
  - # 36
    frequency:   16.5981144922
  - # 37
    frequency:   17.1936294306
  - # 38
    frequency:   18.2949301924
  - # 39
    frequency:   19.5564565054

- q-position: [    0.0824298,    0.0824298,    0.0000000 ]
  distance:    0.0138374
  band:
  - # 1
    frequency:    0.4946216153
  - # 2
    frequency:    0.9269347768
  - # 3
    frequency:    1.2483727575
  - # 4
    frequency:    2.5142086496
  - # 5
    frequency:    2.7315448351
  - # 6
    frequency:    2.7837115926
  - # 7
    frequency:    2.9306027971
  - # 8
    frequency:    2.9480500748
  - # 9
    frequency:    2.9651817904
  - # 10
    frequency:    3.2577121168
  - # 11
    frequency:    3.4427914525
  - # 12
    frequency:    3.5841693251
  - # 13
    frequency:    3.5994389579
  - # 14
    frequency:    3.9337707477
  - # 15
    frequency:    5.1974337886
  - # 16
    frequency:    5.3682615922
  - # 17
    frequency:    5.4020223950
  - # 18
    frequency:    5.7386126103
  - # 19
    frequency:    5.8583550166
  - # 20
    frequency:    6.2389529345
  - # 21
    frequency:    6.5587223532
  - # 22
    frequency:    7.4073751872
  - # 23
    frequency:    8.2736826923
  - # 24
    frequency:    9.4852961161
  - # 25
    frequency:    9.8513266719
  - # 26
    frequency:   10.5927119077
  - # 27
    frequency:   10.8799365466
  - # 28
    frequency:   11.5433070779
  - # 29
    frequency:   11.9870926214
  - # 30
    frequency:   12.4948932066
  - # 31
    frequency:   12.7395923227
  - # 32
    frequency:   14.1137146391
  - # 33
    frequency:   14.3128395229
  - # 34
    frequency:   14.9496338798
  - # 35
    frequency:   15.1041671077
  - # 36
    frequency:   16.5703146134
  - # 37
    frequency:   17.1843046143
  - # 38
    frequency:   18.2498768542
  - # 39
    frequency:   19.5559914123

- q-position: [    0.0879251,    0.0879251,    0.0000000 ]
  distance:    0.0147599
  band:
  - # 1
    frequency:    0.5239822619
  - # 2
    frequency:    0.9843874949
  - # 3
    frequency:    1.2914175648
  - # 4
    frequency:    2.5260079787
  - # 5
    frequency:    2.7315076627
  - # 6
    frequency:    2.7779286188
  - # 7
    frequency:    2.9356112680
  - # 8
    frequency:    2.9467196469
  - # 9
    frequency:    2.9647691201
  - # 10
    frequency:    3.2508820323
  - # 11
    frequency:    3.4399256765
  - # 12
    frequency:    3.5990102307
  - # 13
    frequency:    3.6047691470
  - # 14
    frequency:    3.9347328572
  - # 15
    frequency:    5.2060398772
  - # 16
    frequency:    5.3678188056
  - # 17
    frequency:    5.4029532609
  - # 18
    frequency:    5.7599434191
  - # 19
    frequency:    5.9860974404
  - # 20
    frequency:    6.2364553591
  - # 21
    frequency:    6.5563654644
  - # 22
    frequency:    7.4281797824
  - # 23
    frequency:    8.2690542396
  - # 24
    frequency:    9.4990741240
  - # 25
    frequency:    9.8584816354
  - # 26
    frequency:   10.5867292309
  - # 27
    frequency:   10.8795271762
  - # 28
    frequency:   11.5542515565
  - # 29
    frequency:   11.9877340020
  - # 30
    frequency:   12.4824613376
  - # 31
    frequency:   12.7409707133
  - # 32