# epsilon and Z* of atoms 1 3 5 6 7 8 9 10
   5.73832665    0.00000000    0.00000000    0.00000000    5.13800418    0.23942755    0.00000000    0.23942754    5.71238806 
   4.17458325    0.00000000    0.00000000    0.00000000    3.81602357    0.05741955    0.00000000    0.05531377    4.19395614 
   4.29852586    0.00000000    0.00000000    0.00000000    4.03629305    0.16722230    0.00000000    0.17927561    4.01710828 
   1.37140309    0.00000000    0.00000000    0.00000000   -0.14970331    0.40264593    0.00000000    0.37682785    1.03885702 
  -0.36733322    0.00000000    0.00000000    0.00000000    0.41889933    0.41124984    0.00000000    0.46746651    0.98005419 
  -2.26448973    0.00000000    0.00000000    0.00000000   -2.10655153   -0.20791087    0.00000000   -0.24322585   -2.49650246 
  -2.83140343    0.00000000    0.00000000    0.00000000   -2.47612685   -0.17352922    0.00000000   -0.13566668   -2.91936437 
  -2.25369562    0.00000000    0.00000000    0.00000000   -1.72244659   -0.29215461    0.00000000   -0.26598971   -2.11068492 
  -2.75240309    0.00000000    0.00000000    0.00000000   -2.54301296   -0.10407234    0.00000000   -0.14484918   -2.74931074 
