nqpoint: 459    
npath: 9      
segment_nqpoint:
- 51
- 51
- 51
- 51
- 51
- 51
- 51
- 51
- 51
labels:
- [ '$\Gamma$', '$\mathrm{C}$' ]
- [ '$\mathrm{C_2}$', '$\mathrm{Y_2}$' ]
- [ '$\mathrm{Y_2}$', '$\Gamma$' ]
- [ '$\Gamma$', '$\mathrm{M_2}$' ]
- [ '$\mathrm{M_2}$', '$\mathrm{D}$' ]
- [ '$\mathrm{D_2}$', '$\mathrm{A}$' ]
- [ '$\mathrm{A}$', '$\Gamma$' ]
- [ '$\mathrm{L_2}$', '$\Gamma$' ]
- [ '$\Gamma$', '$\mathrm{V_2}$' ]
reciprocal_lattice:
- [  -0.28254161,  -0.08069968,   0.01166474 ] # a*
- [   0.28254161,  -0.08069968,   0.01166474 ] # b*
- [  -0.00000000,  -0.00000000,   0.15282859 ] # c*
natom: 8      
lattice:
- [    -1.769650875591755,    -6.195811489967705,     0.000000000000000 ] # a
- [     1.769650875591755,    -6.195811489967705,     0.000000000000000 ] # b
- [     0.000000000000000,     0.945798904897284,     6.543278527973584 ] # c
points:
- symbol: Ag # 1
  coordinates: [  0.000000000000000,  0.000000000000000,  0.000000000000000 ]
  mass: 107.868200
- symbol: Ag # 2
  coordinates: [  0.500000000000000,  0.500000000000000,  0.500000000000000 ]
  mass: 107.868200
- symbol: Bi # 3
  coordinates: [  0.240619203743652,  0.240619203743653,  0.739928970048948 ]
  mass: 208.980400
- symbol: Bi # 4
  coordinates: [  0.759380796256347,  0.759380796256348,  0.260071029951052 ]
  mass: 208.980400
- symbol: O # 5
  coordinates: [  0.663696861546966,  0.663696861546966,  0.511235047323346 ]
  mass: 15.999400
- symbol: O # 6
  coordinates: [  0.336303138453034,  0.336303138453034,  0.488764952676655 ]
  mass: 15.999400
- symbol: O # 7
  coordinates: [  0.161401958856205,  0.161401958856205,  0.118239479755150 ]
  mass: 15.999400
- symbol: O # 8
  coordinates: [  0.838598041143795,  0.838598041143795,  0.881760520244850 ]
  mass: 15.999400

phonon:
- q-position: [    0.0000000,    0.0000000,    0.0000000 ]
  distance:    0.0000000
  band:
  - # 1
    frequency:   -0.0000001323
  - # 2
    frequency:   -0.0000001284
  - # 3
    frequency:    0.0000001227
  - # 4
    frequency:    1.4030037214
  - # 5
    frequency:    1.8254754108
  - # 6
    frequency:    1.8431594904
  - # 7
    frequency:    2.0114907110
  - # 8
    frequency:    2.1129112456
  - # 9
    frequency:    2.4425060520
  - # 10
    frequency:    4.1546425336
  - # 11
    frequency:    4.2533426542
  - # 12
    frequency:    5.6966235557
  - # 13
    frequency:    6.0400957119
  - # 14
    frequency:    6.1086030151
  - # 15
    frequency:    6.2126101396
  - # 16
    frequency:    6.7367521705
  - # 17
    frequency:    9.8486910598
  - # 18
    frequency:    9.8724760959
  - # 19
    frequency:   10.4178327957
  - # 20
    frequency:   12.5603050583
  - # 21
    frequency:   15.9314254152
  - # 22
    frequency:   16.5641018053
  - # 23
    frequency:   17.5183581573
  - # 24
    frequency:   18.8622985189

- q-position: [    0.0054164,    0.0054164,    0.0000000 ]
  distance:    0.0008833
  band:
  - # 1
    frequency:    0.0082868455
  - # 2
    frequency:    0.0095894434
  - # 3
    frequency:    0.0390202689
  - # 4
    frequency:    1.4028954766
  - # 5
    frequency:    1.8255129705
  - # 6
    frequency:    1.8431244557
  - # 7
    frequency:    2.0114502903
  - # 8
    frequency:    2.1127110440
  - # 9
    frequency:    2.4426021043
  - # 10
    frequency:    4.1532689266
  - # 11
    frequency:    4.2547217557
  - # 12
    frequency:    5.6959803377
  - # 13
    frequency:    6.0388700230
  - # 14
    frequency:    6.1101510259
  - # 15
    frequency:    6.2121706972
  - # 16
    frequency:    6.7370177229
  - # 17
    frequency:    9.8489841014
  - # 18
    frequency:    9.8726414837
  - # 19
    frequency:   10.4177254315
  - # 20
    frequency:   12.5601056975
  - # 21
    frequency:   15.9315291302
  - # 22
    frequency:   16.5637500739
  - # 23
    frequency:   17.5186047417
  - # 24
    frequency:   18.8621930722

- q-position: [    0.0108328,    0.0108328,    0.0000000 ]
  distance:    0.0017666
  band:
  - # 1
    frequency:    0.0165787978
  - # 2
    frequency:    0.0191772478
  - # 3
    frequency:    0.0780155753
  - # 4
    frequency:    1.4025706982
  - # 5
    frequency:    1.8256254370
  - # 6
    frequency:    1.8430195008
  - # 7
    frequency:    2.0113292555
  - # 8
    frequency:    2.1121118065
  - # 9
    frequency:    2.4428897456
  - # 10
    frequency:    4.1493587247
  - # 11
    frequency:    4.2586483597
  - # 12
    frequency:    5.6940578618
  - # 13
    frequency:    6.0354801445
  - # 14
    frequency:    6.1145011487
  - # 15
    frequency:    6.2108535900
  - # 16
    frequency:    6.7378134781
  - # 17
    frequency:    9.8498628757
  - # 18
    frequency:    9.8731371753
  - # 19
    frequency:   10.4174034863
  - # 20
    frequency:   12.5595077199
  - # 21
    frequency:   15.9318393003
  - # 22
    frequency:   16.5626977351
  - # 23
    frequency:   17.5193425376
  - # 24
    frequency:   18.8618769045

- q-position: [    0.0162493,    0.0162493,    0.0000000 ]
  distance:    0.0026499
  band:
  - # 1
    frequency:    0.0248809339
  - # 2
    frequency:    0.0287617718
  - # 3
    frequency:    0.1169608358
  - # 4
    frequency:    1.4020292540
  - # 5
    frequency:    1.8258121446
  - # 6
    frequency:    1.8428451017
  - # 7
    frequency:    2.0111282874
  - # 8
    frequency:    2.1111176206
  - # 9
    frequency:    2.4433674507
  - # 10
    frequency:    4.1434110859
  - # 11
    frequency:    4.2646230640
  - # 12
    frequency:    5.6908773042
  - # 13
    frequency:    6.0305475946
  - # 14
    frequency:    6.1210120578
  - # 15
    frequency:    6.2086624465
  - # 16
    frequency:    6.7391367612
  - # 17
    frequency:    9.8513263325
  - # 18
    frequency:    9.8739617556
  - # 19
    frequency:   10.4168674031
  - # 20
    frequency:   12.5585114396
  - # 21
    frequency:   15.9323529915
  - # 22
    frequency:   16.5609533224
  - # 23
    frequency:   17.5205657152
  - # 24
    frequency:   18.8613505331

- q-position: [    0.0216657,    0.0216657,    0.0000000 ]
  distance:    0.0035332
  band:
  - # 1
    frequency:    0.0331982723
  - # 2
    frequency:    0.0383413697
  - # 3
    frequency:    0.1558307237
  - # 4
    frequency:    1.4012709221
  - # 5
    frequency:    1.8260718865
  - # 6
    frequency:    1.8426021512
  - # 7
    frequency:    2.0108485170
  - # 8
    frequency:    2.1097352487
  - # 9
    frequency:    2.4440327500
  - # 10
    frequency:    4.1359725830
  - # 11
    frequency:    4.2720988866
  - # 12
    frequency:    5.6864728018
  - # 13
    frequency:    6.0246587354
  - # 14
    frequency:    6.1290655317
  - # 15
    frequency:    6.2056032095
  - # 16
    frequency:    6.7409832132
  - # 17
    frequency:    9.8533727244
  - # 18
    frequency:    9.8751128685
  - # 19
    frequency:   10.4161179250
  - # 20
    frequency:   12.5571173811
  - # 21
    frequency:   15.9330652837
  - # 22
    frequency:   16.5585309502
  - # 23
    frequency:   17.5222646969
  - # 24
    frequency:   18.8606148192

- q-position: [    0.0270821,    0.0270821,    0.0000000 ]
  distance:    0.0044165
  band:
  - # 1
    frequency:    0.0415357440
  - # 2
    frequency:    0.0479143886
  - # 3
    frequency:    0.1945995444
  - # 4
    frequency:    1.4002953898
  - # 5
    frequency:    1.8264027443
  - # 6
    frequency:    1.8422921325
  - # 7
    frequency:    2.0104915201
  - # 8
    frequency:    2.1079740591
  - # 9
    frequency:    2.4448823329
  - # 10
    frequency:    4.1274938555
  - # 11
    frequency:    4.2806246116
  - # 12
    frequency:    5.6808898416
  - # 13
    frequency:    6.0182211772
  - # 14
    frequency:    6.1382116557
  - # 15
    frequency:    6.2016839876
  - # 16
    frequency:    6.7433469318
  - # 17
    frequency:    9.8559996119
  - # 18
    frequency:    9.8765872200
  - # 19
    frequency:   10.4151561014
  - # 20
    frequency:   12.5553262785
  - # 21
    frequency:   15.9339692251
  - # 22
    frequency:   16.5554501607
  - # 23
    frequency:   17.5244263583
  - # 24
    frequency:   18.8596709667

- q-position: [    0.0324985,    0.0324985,    0.0000000 ]
  distance:    0.0052997
  band:
  - # 1
    frequency:    0.0498981637
  - # 2
    frequency:    0.0574791668
  - # 3
    frequency:    0.2332411058
  - # 4
    frequency:    1.3991022517
  - # 5
    frequency:    1.8268017903
  - # 6
    frequency:    1.8419174198
  - # 7
    frequency:    2.0100593095
  - # 8
    frequency:    2.1058459354
  - # 9
    frequency:    2.4459121854
  - # 10
    frequency:    4.1183018835
  - # 11
    frequency:    4.2898725114
  - # 12
    frequency:    5.6741832340
  - # 13
    frequency:    6.0114819502
  - # 14
    frequency:    6.1481526696
  - # 15
    frequency:    6.1969148637
  - # 16
    frequency:    6.7462206533
  - # 17
    frequency:    9.8592038699
  - # 18
    frequency:    9.8783805819
  - # 19
    frequency:   10.4139832980
  - # 20
    frequency:   12.5531390773
  - # 21
    frequency:   15.9350557681
  - # 22
    frequency:   16.5517357224
  - # 23
    frequency:   17.5270342953
  - # 24
    frequency:   18.8585205205

- q-position: [    0.0379149,    0.0379149,    0.0000000 ]
  distance:    0.0061830
  band:
  - # 1
    frequency:    0.0582902027
  - # 2
    frequency:    0.0670340309
  - # 3
    frequency:    0.2717285848
  - # 4
    frequency:    1.3976910081
  - # 5
    frequency:    1.8272645813
  - # 6
    frequency:    1.8414817909
  - # 7
    frequency:    2.0095543249
  - # 8
    frequency:    2.1033651755
  - # 9
    frequency:    2.4471177528
  - # 10
    frequency:    4.1086225750
  - # 11
    frequency:    4.2996157548
  - # 12
    frequency:    5.6664148595
  - # 13
    frequency:    6.0045799266
  - # 14
    frequency:    6.1586927906
  - # 15
    frequency:    6.1913076721
  - # 16
    frequency:    6.7495959608
  - # 17
    frequency:    9.8629816961
  - # 18
    frequency:    9.8804877968
  - # 19
    frequency:   10.4126012087
  - # 20
    frequency:   12.5505569341
  - # 21
    frequency:   15.9363136868
  - # 22
    frequency:   16.5474173946
  - # 23
    frequency:   17.5300691444
  - # 24
    frequency:   18.8571653639

- q-position: [    0.0433313,    0.0433313,    0.0000000 ]
  distance:    0.0070663
  band:
  - # 1
    frequency:    0.0667163618
  - # 2
    frequency:    0.0765772940
  - # 3
    frequency:    0.3100343850
  - # 4
    frequency:    1.3960610654
  - # 5
    frequency:    1.8277842825
  - # 6
    frequency:    1.8409913097
  - # 7
    frequency:    2.0089794213
  - # 8
    frequency:    2.1005483839
  - # 9
    frequency:    2.4484941207
  - # 10
    frequency:    4.0986107248
  - # 11
    frequency:    4.3096984424
  - # 12
    frequency:    5.6576513760
  - # 13
    frequency:    5.9975872808
  - # 14
    frequency:    6.1696990365
  - # 15
    frequency:    6.1848757612
  - # 16
    frequency:    6.7534635064
  - # 17
    frequency:    9.8673286215
  - # 18
    frequency:    9.8829027829
  - # 19
    frequency:   10.4110118716
  - # 20
    frequency:   12.5475812184
  - # 21
    frequency:   15.9377294754
  - # 22
    frequency:   16.5425296718
  - # 23
    frequency:   17.5335089439
  - # 24
    frequency:   18.8556077164

- q-position: [    0.0487478,    0.0487478,    0.0000000 ]
  distance:    0.0079496
  band:
  - # 1
    frequency:    0.0751809459
  - # 2
    frequency:    0.0861072532
  - # 3
    frequency:    0.3481299872
  - # 4
    frequency:    1.3942117379
  - # 5
    frequency:    1.8283501187
  - # 6
    frequency:    1.8404558816
  - # 7
    frequency:    2.0083378539
  - # 8
    frequency:    2.0974143686
  - # 9
    frequency:    2.4500362061
  - # 10
    frequency:    4.0883736613
  - # 11
    frequency:    4.3200119538
  - # 12
    frequency:    5.6479620563
  - # 13
    frequency:    5.9905360250
  - # 14
    frequency:    6.1776337523
  - # 15
    frequency:    6.1810768406
  - # 16
    frequency:    6.7578132339
  - # 17
    frequency:    9.8722395220
  - # 18
    frequency:    9.8856185387
  - # 19
    frequency:   10.4092176881
  - # 20
    frequency:   12.5442135129
  - # 21
    frequency:   15.9392872287
  - # 22
    frequency:   16.5371115213
  - # 23
    frequency:   17.5373295187
  - # 24
    frequency:   18.8538501296

- q-position: [    0.0541642,    0.0541642,    0.0000000 ]
  distance:    0.0088329
  band:
  - # 1
    frequency:    0.0836880394
  - # 2
    frequency:    0.0956221876
  - # 3
    frequency:    0.3859857888
  - # 4
    frequency:    1.3921422536
  - # 5
    frequency:    1.8289445853
  - # 6
    frequency:    1.8398920526
  - # 7
    frequency:    2.0076332622
  - # 8
    frequency:    2.0939840474
  - # 9
    frequency:    2.4517389512
  - # 10
    frequency:    4.0779873767
  - # 11
    frequency:    4.3304788095
  - # 12
    frequency:    5.6374168793
  - # 13
    frequency:    5.9834341841
  - # 14
    frequency:    6.1695973087
  - # 15
    frequency:    6.1927557731
  - # 16
    frequency:    6.7626345886
  - # 17
    frequency:    9.8777086323
  - # 18
    frequency:    9.8886271471
  - # 19
    frequency:   10.4072214457
  - # 20
    frequency:   12.5404556153
  - # 21
    frequency:   15.9409685044
  - # 22
    frequency:   16.5312061300
  - # 23
    frequency:   17.5415048758
  - # 24
    frequency:   18.8518954839

- q-position: [    0.0595806,    0.0595806,    0.0000000 ]
  distance:    0.0097162
  band:
  - # 1
    frequency:    0.0922414826
  - # 2
    frequency:    0.1051203555
  - # 3
    frequency:    0.4235709311
  - # 4
    frequency:    1.3898517652
  - # 5
    frequency:    1.8295384321
  - # 6
    frequency:    1.8393280352
  - # 7
    frequency:    2.0068696509
  - # 8
    frequency:    2.0902803703
  - # 9
    frequency:    2.4535975131
  - # 10
    frequency:    4.0675070036
  - # 11
    frequency:    4.3410421869
  - # 12
    frequency:    5.6260849541
  - # 13
    frequency:    5.9762756814
  - # 14
    frequency:    6.1607829228
  - # 15
    frequency:    6.2046812172
  - # 16
    frequency:    6.7679167084
  - # 17
    frequency:    9.8837295607
  - # 18
    frequency:    9.8919197775
  - # 19
    frequency:   10.4050263449
  - # 20
    frequency:   12.5363095391
  - # 21
    frequency:   15.9427521703
  - # 22
    frequency:   16.5248606690
  - # 23
    frequency:   17.5460075977
  - # 24
    frequency:   18.8497469837

- q-position: [    0.0649970,    0.0649970,    0.0000000 ]
  distance:    0.0105995
  band:
  - # 1
    frequency:    0.1008448507
  - # 2
    frequency:    0.1145999929
  - # 3
    frequency:    0.4608531121
  - # 4
    frequency:    1.3873393690
  - # 5
    frequency:    1.8300822563
  - # 6
    frequency:    1.8388121262
  - # 7
    frequency:    2.0060513694
  - # 8
    frequency:    2.0863282628
  - # 9
    frequency:    2.4556074450
  - # 10
    frequency:    4.0569735453
  - # 11
    frequency:    4.3516591816
  - # 12
    frequency:    5.6140333062
  - # 13
    frequency:    5.9690464864
  - # 14
    frequency:    6.1512077283
  - # 15
    frequency:    6.2168094202
  - # 16
    frequency:    6.7736485868
  - # 17
    frequency:    9.8902953061
  - # 18
    frequency:    9.8954866862
  - # 19
    frequency:   10.4026360312
  - # 20
    frequency:   12.5317775156
  - # 21
    frequency:   15.9446142376
  - # 22
    frequency:   16.5181260862
  - # 23
    frequency:   17.5508092213
  - # 24
    frequency:   18.8474081525

- q-position: [    0.0704134,    0.0704134,    0.0000000 ]
  distance:    0.0114828
  band:
  - # 1
    frequency:    0.1095014328
  - # 2
    frequency:    0.1240593108
  - # 3
    frequency:    0.4977983821
  - # 4
    frequency:    1.3846041340
  - # 5
    frequency:    1.8304959898
  - # 6
    frequency:    1.8384232322
  - # 7
    frequency:    2.0051830892
  - # 8
    frequency:    2.0821545903
  - # 9
    frequency:    2.4577648653
  - # 10
    frequency:    4.0464182254
  - # 11
    frequency:    4.3622964483
  - # 12
    frequency:    5.6013260147
  - # 13
    frequency:    5.9617284976
  - # 14
    frequency:    6.1408893406
  - # 15
    frequency:    6.2291044570
  - # 16
    frequency:    6.7798192068
  - # 17
    frequency:    9.8973982755
  - # 18
    frequency:    9.8993172135
  - # 19
    frequency:   10.4000546315
  - # 20
    frequency:   12.5268619952
  - # 21
    frequency:   15.9465276862
  - # 22
    frequency:   16.5110569309
  - # 23
    frequency:   17.5558805941
  - # 24
    frequency:   18.8448828273

- q-position: [    0.0758298,    0.0758298,    0.0000000 ]
  distance:    0.0123661
  band:
  - # 1
    frequency:    0.1182142139
  - # 2
    frequency:    0.1334964932
  - # 3
    frequency:    0.5343709197
  - # 4
    frequency:    1.3816451464
  - # 5
    frequency:    1.8306692532
  - # 6
    frequency:    1.8382705286
  - # 7
    frequency:    2.0042697792
  - # 8
    frequency:    2.0777881474
  - # 9
    frequency:    2.4600666119
  - # 10
    frequency:    4.0358653381
  - # 11
    frequency:    4.3729273414
  - # 12
    frequency:    5.5880236673
  - # 13
    frequency:    5.9543020097
  - # 14
    frequency:    6.1298457268
  - # 15
    frequency:    6.2415362925
  - # 16
    frequency:    6.7864176444
  - # 17
    frequency:    9.9033997769
  - # 18
    frequency:    9.9050303037
  - # 19
    frequency:   10.3972867969
  - # 20
    frequency:   12.5215656491
  - # 21
    frequency:   15.9484622890
  - # 22
    frequency:   16.5037112093
  - # 23
    frequency:   17.5611922011
  - # 24
    frequency:   18.8421751524

- q-position: [    0.0812463,    0.0812463,    0.0000000 ]
  distance:    0.0132494
  band:
  - # 1
    frequency:    0.1269858573
  - # 2
    frequency:    0.1429096950
  - # 3
    frequency:    0.5705327839
  - # 4
    frequency:    1.3784615727
  - # 5
    frequency:    1.8305006626
  - # 6
    frequency:    1.8384541666
  - # 7
    frequency:    2.0033166800
  - # 8
    frequency:    2.0732596682
  - # 9
    frequency:    2.4625103813
  - # 10
    frequency:    4.0253341470
  - # 11
    frequency:    4.3835300056
  - # 12
    frequency:    5.5741830783
  - # 13
    frequency:    5.9467472692
  - # 14
    frequency:    6.1180951039
  - # 15
    frequency:    6.2540794898
  - # 16
    frequency:    6.7934331426
  - # 17
    frequency:    9.9077218591
  - # 18
    frequency:    9.9131826732
  - # 19
    frequency:   10.3943377523
  - # 20
    frequency:   12.5158913713
  - # 21
    frequency:   15.9503844451
  - # 22
    frequency:   16.4961502651
  - # 23
    frequency:   17.5667144580
  - # 24
    frequency:   18.8392895725

- q-position: [    0.0866627,    0.0866627,    0.0000000 ]
  distance:    0.0141327
  band:
  - # 1
    frequency:    0.1358186898
  - # 2
    frequency:    0.1522970398
  - # 3
    frequency:    0.6062436390
  - # 4
    frequency:    1.3750527509
  - # 5
    frequency:    1.8299623682
  - # 6
    frequency:    1.8390007488
  - # 7
    frequency:    2.0023292768
  - # 8
    frequency:    2.0686018550
  - # 9
    frequency:    2.4650948526
  - # 10
    frequency:    4.0148401739
  - # 11
    frequency:    4.3940860775
  - # 12
    frequency:    5.5598572164
  - # 13
    frequency:    5.9390454296
  - # 14
    frequency:    6.1056558632
  - # 15
    frequency:    6.2667123107
  - # 16
    frequency:    6.8008551584
  - # 17
    frequency:    9.9122699896
  - # 18
    frequency:    9.9218461361
  - # 19
    frequency:   10.3912133524
  - # 20
    frequency:   12.5098422801
  - # 21
    frequency:   15.9522570367
  - # 22
    frequency:   16.4884386730
  - # 23
    frequency:   17.5724179678
  - # 24
    frequency:   18.8362308251

- q-position: [    0.0920791,    0.0920791,    0.0000000 ]
  distance:    0.0150160
  band:
  - # 1
    frequency:    0.1447146880
  - # 2
    frequency:    0.1616566180
  - # 3
    frequency:    0.6414604458
  - # 4
    frequency:    1.3714183160
  - # 5
    frequency:    1.8291040443
  - # 6
    frequency:    1.8398593539
  - # 7
    frequency:    2.0013132716
  - # 8
    frequency:    2.0638494221
  - # 9
    frequency:    2.4678197970
  - # 10
    frequency:    4.0043960887
  - # 11
    frequency:    4.4045797843
  - # 12
    frequency:    5.5450952866
  - # 13
    frequency:    5.9311791089
  - # 14
    frequency:    6.0925465176
  - # 15
    frequency:    6.2794160597
  - # 16
    frequency:    6.8086733875
  - # 17
    frequency:    9.9170297192
  - # 18
    frequency:    9.9310109357
  - # 19
    frequency:   10.3879201472
  - # 20
    frequency:   12.5034217206
  - # 21
    frequency:   15.9540393293
  - # 22
    frequency:   16.4806441262
  - # 23
    frequency:   17.5782737414
  - # 24
    frequency:   18.8330039330

- q-position: [    0.0974955,    0.0974955,    0.0000000 ]
  distance:    0.0158992
  band:
  - # 1
    frequency:    0.1536754666
  - # 2
    frequency:    0.1709864844
  - # 3
    frequency:    0.6761371131
  - # 4
    frequency:    1.3675583741
  - # 5
    frequency:    1.8279967975
  - # 6
    frequency:    1.8409576425
  - # 7
    frequency:    2.0002745544
  - # 8
    frequency:    2.0590391459
  - # 9
    frequency:    2.4706861744
  - # 10
    frequency:    3.9940123354
  - # 11
    frequency:    4.4149973068
  - # 12
    frequency:    5.5299429197
  - # 13
    frequency:    5.9231326813
  - # 14
    frequency:    6.0787856679
  - # 15
    frequency:    6.2921745856
  - # 16
    frequency:    6.8168777687
  - # 17
    frequency:    9.9219855851
  - # 18
    frequency:    9.9406668307
  - # 19
    frequency:   10.3844654568
  - # 20
    frequency:   12.4966332663
  - # 21
    frequency:   15.9556869412
  - # 22
    frequency:   16.4728372908
  - # 23
    frequency:   17.5842533828
  - # 24
    frequency:   18.8296141947

- q-position: [    0.1029119,    0.1029119,    0.0000000 ]
  distance:    0.0167825
  band:
  - # 1
    frequency:    0.1627022684
  - # 2
    frequency:    0.1802846569
  - # 3
    frequency:    0.7102240980
  - # 4
    frequency:    1.3634737400
  - # 5
    frequency:    1.8266964684
  - # 6
    frequency:    1.8422385678
  - # 7
    frequency:    1.9992191757
  - # 8
    frequency:    2.0542099138
  - # 9
    frequency:    2.4736962183
  - # 10
    frequency:    3.9836975805
  - # 11
    frequency:    4.4253263193
  - # 12
    frequency:    5.5144424315
  - # 13
    frequency:    5.9148923949
  - # 14
    frequency:    6.0643919841
  - # 15
    frequency:    6.3049738897
  - # 16
    frequency:    6.8254584740
  - # 17
    frequency:    9.9271210654
  - # 18
    frequency:    9.9508031179
  - # 19
    frequency:   10.3808574564
  - # 20
    frequency:   12.4894807212
  - # 21
    frequency:   15.9571519128
  - # 22
    frequency:   16.4650915938
  - # 23
    frequency:   17.5903292402
  - # 24
    frequency:   18.8260671755

- q-position: [    0.1083284,    0.1083284,    0.0000000 ]
  distance:    0.0176658
  band:
  - # 1
    frequency:    0.1717959564
  - # 2
    frequency:    0.1895491142
  - # 3
    frequency:    0.7436679437
  - # 4
    frequency:    1.3591662607
  - # 5
    frequency:    1.8252391821
  - # 6
    frequency:    1.8436648378
  - # 7
    frequency:    1.9981533187
  - # 8
    frequency:    2.0494027621
  - # 9
    frequency:    2.4768535113
  - # 10
    frequency:    3.9734590393
  - # 11
    frequency:    4.4355556511
  - # 12
    frequency:    5.4986331195
  - # 13
    frequency:    5.9064463776
  - # 14
    frequency:    6.0493841997
  - # 15
    frequency:    6.3178018071
  - # 16
    frequency:    6.8344058868
  - # 17
    frequency:    9.9324185222
  - # 18
    frequency:    9.9614086574
  - # 19
    frequency:   10.3771052744
  - # 20
    frequency:   12.4819681219
  - # 21
    frequency:   15.9583829143
  - # 22
    frequency:   16.4574829044
  - # 23
    frequency:   17.5964745270
  - # 24
    frequency:   18.8223686971

- q-position: [    0.1137448,    0.1137448,    0.0000000 ]
  distance:    0.0185491
  band:
  - # 1
    frequency:    0.1809570068
  - # 2
    frequency:    0.1987777939
  - # 3
    frequency:    0.7764107339
  - # 4
    frequency:    1.3546392553
  - # 5
    frequency:    1.8236471806
  - # 6
    frequency:    1.8452130922
  - # 7
    frequency:    1.9970832739
  - # 8
    frequency:    2.0446608884
  - # 9
    frequency:    2.4801630524
  - # 10
    frequency:    3.9633027187
  - # 11
    frequency:    4.4456750313
  - # 12
    frequency:    5.4825515777
  - # 13
    frequency:    5.8977845742
  - # 14
    frequency:    6.0337811134
  - # 15
    frequency:    6.3306477433
  - # 16
    frequency:    6.8437105719
  - # 17
    frequency:    9.9378591300
  - # 18
    frequency:    9.9724718974
  - # 19
    frequency:   10.3732191034
  - # 20
    frequency:   12.4740997396
  - # 21
    frequency:   15.9593256331
  - # 22
    frequency:   16.4500890633
  - # 23
    frequency:   17.6026634149
  - # 24
    frequency:   18.8185248265

- q-position: [    0.1191612,    0.1191612,    0.0000000 ]
  distance:    0.0194324
  band:
  - # 1
    frequency:    0.1901855049
  - # 2
    frequency:    0.2079685913
  - # 3
    frequency:    0.8083894366
  - # 4
    frequency:    1.3498981111
  - # 5
    frequency:    1.8219343243
  - # 6
    frequency:    1.8468684069
  - # 7
    frequency:    1.9960154151
  - # 8
    frequency:    2.0400296257
  - # 9
    frequency:    2.4836313168
  - # 10
    frequency:    3.9532336000
  - # 11
    frequency:    4.4556748917
  - # 12
    frequency:    5.4662320118
  - # 13
    frequency:    5.8888986434
  - # 14
    frequency:    6.0176015976
  - # 15
    frequency:    6.3435024496
  - # 16
    frequency:    6.8533632402
  - # 17
    frequency:    9.9434227889
  - # 18
    frequency:    9.9839808989
  - # 19
    frequency:   10.3692103268
  - # 20
    frequency:   12.4658800820
  - # 21
    frequency:   15.9599233836
  - # 22
    frequency:   16.4429892150
  - # 23
    frequency:   17.6088711029
  - # 24
    frequency:   18.8145418649

- q-position: [    0.1245776,    0.1245776,    0.0000000 ]
  distance:    0.0203157
  band:
  - # 1
    frequency:    0.1994811417
  - # 2
    frequency:    0.2171193575
  - # 3
    frequency:    0.8395350971
  - # 4
    frequency:    1.3449510942
  - # 5
    frequency:    1.8201096146
  - # 6
    frequency:    1.8486207757
  - # 7
    frequency:    1.9949561798
  - # 8
    frequency:    2.0355563595
  - # 9
    frequency:    2.4872663104
  - # 10
    frequency:    3.9432557803
  - # 11
    frequency:    4.4655462110
  - # 12
    frequency:    5.4497065452
  - # 13
    frequency:    5.8797818341
  - # 14
    frequency:    6.0008646106
  - # 15
    frequency:    6.3563578313
  - # 16
    frequency:    6.8633547110
  - # 17
    frequency:    9.9490880209
  - # 18
    frequency:    9.9959233619
  - # 19
    frequency:   10.3650916619
  - # 20
    frequency:   12.4573138953
  - # 21
    frequency:   15.9601179758
  - # 22
    frequency:   16.4362629016
  - # 23
    frequency:   17.6150738659
  - # 24
    frequency:   18.8104263347

- q-position: [    0.1299940,    0.1299940,    0.0000000 ]
  distance:    0.0211990
  band:
  - # 1
    frequency:    0.2088432127
  - # 2
    frequency:    0.2262278978
  - # 3
    frequency:    0.8697718194
  - # 4
    frequency:    1.3398104535
  - # 5
    frequency:    1.8181792531
  - # 6
    frequency:    1.8504630486
  - # 7
    frequency:    1.9939120519
  - # 8
    frequency:    2.0312903677
  - # 9
    frequency:    2.4910776179
  - # 10
    frequency:    3.9333725846
  - # 11
    frequency:    4.4752803868
  - # 12
    frequency:    5.4330055105
  - # 13
    frequency:    5.8704288555
  - # 14
    frequency:    5.9835892111
  - # 15
    frequency:    6.3692067810
  - # 16
    frequency:    6.8736758722
  - # 17
    frequency:    9.9548318469
  - # 18
    frequency:   10.0082866504
  - # 19
    frequency:   10.3608773204
  - # 20
    frequency:   12.4484061658
  - # 21
    frequency:   15.9598508667
  - # 22
    frequency:   16.4299888925
  - # 23
    frequency:   17.6212490857
  - # 24
    frequency:   18.8061849665

- q-position: [    0.1354104,    0.1354104,    0.0000000 ]
  distance:    0.0220823
  band:
  - # 1
    frequency:    0.2182706179
  - # 2
    frequency:    0.2352919709
  - # 3
    frequency:    0.8990154509
  - # 4
    frequency:    1.3344939256
  - # 5
    frequency:    1.8161478358
  - # 6
    frequency:    1.8523897314
  - # 7
    frequency:    1.9928895507
  - # 8
    frequency:    2.0272825626
  - # 9
    frequency:    2.4950764450
  - # 10
    frequency:    3.9235866554
  - # 11
    frequency:    4.4848691285
  - # 12
    frequency:    5.4161577217
  - # 13
    frequency:    5.8608357466
  - # 14
    frequency:    5.9657945728
  - # 15
    frequency:    6.3820430319
  - # 16
    frequency:    6.8843176418
  - # 17
    frequency:    9.9606296451
  - # 18
    frequency:   10.0210578183
  - # 19
    frequency:   10.3565831887
  - # 20
    frequency:   12.4391621218
  - # 21
    frequency:   15.9590645932
  - # 22
    frequency:   16.4242437463
  - # 23
    frequency:   17.6273752675
  - # 24
    frequency:   18.8018246852

- q-position: [    0.1408269,    0.1408269,    0.0000000 ]
  distance:    0.0229656
  band:
  - # 1
    frequency:    0.2277618639
  - # 2
    frequency:    0.2443092872
  - # 3
    frequency:    0.9271718431
  - # 4
    frequency:    1.3290267930
  - # 5
    frequency:    1.8140190581
  - # 6
    frequency:    1.8543962682
  - # 7
    frequency:    1.9918952247
  - # 8
    frequency:    2.0235851096
  - # 9
    frequency:    2.4992756533
  - # 10
    frequency:    3.9139000274
  - # 11
    frequency:    4.4943043626
  - # 12
    frequency:    5.3991907277
  - # 13
    frequency:    5.8509997529
  - # 14
    frequency:    5.9474999995
  - # 15
    frequency:    6.3948610294
  - # 16
    frequency:    6.8952709307
  - # 17
    frequency:    9.9664549885
  - # 18
    frequency:   10.0342236352
  - # 19
    frequency:   10.3522270254
  - # 20
    frequency:   12.4295872349
  - # 21
    frequency:   15.9577044530
  - # 22
    frequency:   16.4191001389
  - # 23
    frequency:   17.6334320452
  - # 24
    frequency:   18.7973525952
