phonopy:
  version: "2.28.0"
  frequency_unit_conversion_factor: 15.633302
  symmetry_tolerance: 1.00000e-05
  configuration:
    band: "auto"
    nac: ".true."
    dim: "3 3 3"
    read_force_constants: ".true."

physical_unit:
  atomic_mass: "AMU"
  length: "angstrom"
  force_constants: "eV/angstrom^2"

space_group:
  type: "C2/m"
  number: 12
  Hall_symbol: "-C 2y"

primitive_matrix:
- [ -1.000000000000000, -0.000000000000000,  0.000000000000000 ]
- [  0.000000000000000,  1.000000000000000,  0.000000000000000 ]
- [  0.000000000000000,  0.000000000000000, -1.000000000000000 ]

supercell_matrix:
- [   3,   0,   0 ]
- [   0,   3,   0 ]
- [   0,   0,   3 ]

primitive_cell:
  lattice:
  - [    -1.769650875591755,    -6.195811489967705,     0.000000000000000 ] # a
  - [     1.769650875591755,    -6.195811489967705,     0.000000000000000 ] # b
  - [     0.000000000000000,     0.945798904897284,     6.543278527973584 ] # c
  points:
  - symbol: Ag # 1
    coordinates: [  0.000000000000000,  0.000000000000000,  0.000000000000000 ]
    mass: 107.868200
  - symbol: Ag # 2
    coordinates: [  0.500000000000000,  0.500000000000000,  0.500000000000000 ]
    mass: 107.868200
  - symbol: Bi # 3
    coordinates: [  0.240619203743652,  0.240619203743653,  0.739928970048948 ]
    mass: 208.980400
  - symbol: Bi # 4
    coordinates: [  0.759380796256347,  0.759380796256348,  0.260071029951052 ]
    mass: 208.980400
  - symbol: O # 5
    coordinates: [  0.663696861546966,  0.663696861546966,  0.511235047323346 ]
    mass: 15.999400
  - symbol: O # 6
    coordinates: [  0.336303138453034,  0.336303138453034,  0.488764952676655 ]
    mass: 15.999400
  - symbol: O # 7
    coordinates: [  0.161401958856205,  0.161401958856205,  0.118239479755150 ]
    mass: 15.999400
  - symbol: O # 8
    coordinates: [  0.838598041143795,  0.838598041143795,  0.881760520244850 ]
    mass: 15.999400
  reciprocal_lattice: # without 2pi
  - [    -0.282541605746277,    -0.080699679260675,     0.011664743896199 ] # a*
  - [     0.282541605746277,    -0.080699679260675,     0.011664743896199 ] # b*
  - [    -0.000000000000000,    -0.000000000000000,     0.152828585200040 ] # c*

unit_cell:
  lattice:
  - [     1.769650875591755,     6.195811489967706,     0.000000000000000 ] # a
  - [     1.769650875591755,    -6.195811489967706,     0.000000000000000 ] # b
  - [     0.000000000000000,    -0.945798904897284,    -6.543278527973584 ] # c
  points:
  - symbol: Ag # 1
    coordinates: [  0.000000000000000,  0.000000000000000,  0.000000000000000 ]
    mass: 107.868200
    reduced_to: 1
  - symbol: Ag # 2
    coordinates: [  0.500000000000000,  0.500000000000000,  0.500000000000000 ]
    mass: 107.868200
    reduced_to: 2
  - symbol: Bi # 3
    coordinates: [  0.759380796256347,  0.240619203743653,  0.260071029951052 ]
    mass: 208.980400
    reduced_to: 3
  - symbol: Bi # 4
    coordinates: [  0.240619203743653,  0.759380796256347,  0.739928970048948 ]
    mass: 208.980400
    reduced_to: 4
  - symbol: O # 5
    coordinates: [  0.336303138453034,  0.663696861546966,  0.488764952676654 ]
    mass: 15.999400
    reduced_to: 5
  - symbol: O # 6
    coordinates: [  0.663696861546966,  0.336303138453034,  0.511235047323345 ]
    mass: 15.999400
    reduced_to: 6
  - symbol: O # 7
    coordinates: [  0.838598041143795,  0.161401958856205,  0.881760520244850 ]
    mass: 15.999400
    reduced_to: 7
  - symbol: O # 8
    coordinates: [  0.161401958856205,  0.838598041143795,  0.118239479755150 ]
    mass: 15.999400
    reduced_to: 8

supercell:
  lattice:
  - [     5.308952626775266,    18.587434469903119,     0.000000000000000 ] # a
  - [     5.308952626775266,   -18.587434469903119,     0.000000000000000 ] # b
  - [     0.000000000000000,    -2.837396714691852,   -19.629835583920752 ] # c
  points:
  - symbol: Ag # 1
    coordinates: [  0.000000000000000,  0.000000000000000,  0.000000000000000 ]
    mass: 107.868200
    reduced_to: 1
  - symbol: Ag # 2
    coordinates: [  0.333333333333333,  0.000000000000000,  0.000000000000000 ]
    mass: 107.868200
    reduced_to: 1
  - symbol: Ag # 3
    coordinates: [  0.666666666666667,  0.000000000000000,  0.000000000000000 ]
    mass: 107.868200
    reduced_to: 1
  - symbol: Ag # 4
    coordinates: [  0.000000000000000,  0.333333333333333,  0.000000000000000 ]
    mass: 107.868200
    reduced_to: 1
  - symbol: Ag # 5
    coordinates: [  0.333333333333333,  0.333333333333333,  0.000000000000000 ]
    mass: 107.868200
    reduced_to: 1
  - symbol: Ag # 6
    coordinates: [  0.666666666666667,  0.333333333333333,  0.000000000000000 ]
    mass: 107.868200
    reduced_to: 1
  - symbol: Ag # 7
    coordinates: [  0.000000000000000,  0.666666666666667,  0.000000000000000 ]
    mass: 107.868200
    reduced_to: 1
  - symbol: Ag # 8
    coordinates: [  0.333333333333333,  0.666666666666667,  0.000000000000000 ]
    mass: 107.868200
    reduced_to: 1
  - symbol: Ag # 9
    coordinates: [  0.666666666666667,  0.666666666666667,  0.000000000000000 ]
    mass: 107.868200
    reduced_to: 1
  - symbol: Ag # 10
    coordinates: [  0.000000000000000,  0.000000000000000,  0.333333333333333 ]
    mass: 107.868200
    reduced_to: 1
  - symbol: Ag # 11
    coordinates: [  0.333333333333333,  0.000000000000000,  0.333333333333333 ]
    mass: 107.868200
    reduced_to: 1
  - symbol: Ag # 12
    coordinates: [  0.666666666666667,  0.000000000000000,  0.333333333333333 ]
    mass: 107.868200
    reduced_to: 1
  - symbol: Ag # 13
    coordinates: [  0.000000000000000,  0.333333333333333,  0.333333333333333 ]
    mass: 107.868200
    reduced_to: 1
  - symbol: Ag # 14
    coordinates: [  0.333333333333333,  0.333333333333333,  0.333333333333333 ]
    mass: 107.868200
    reduced_to: 1
  - symbol: Ag # 15
    coordinates: [  0.666666666666667,  0.333333333333333,  0.333333333333333 ]
    mass: 107.868200
    reduced_to: 1
  - symbol: Ag # 16
    coordinates: [  0.000000000000000,  0.666666666666667,  0.333333333333333 ]
    mass: 107.868200
    reduced_to: 1
  - symbol: Ag # 17
    coordinates: [  0.333333333333333,  0.666666666666667,  0.333333333333333 ]
    mass: 107.868200
    reduced_to: 1
  - symbol: Ag # 18
    coordinates: [  0.666666666666667,  0.666666666666667,  0.333333333333333 ]
    mass: 107.868200
    reduced_to: 1
  - symbol: Ag # 19
    coordinates: [  0.000000000000000,  0.000000000000000,  0.666666666666667 ]
    mass: 107.868200
    reduced_to: 1
  - symbol: Ag # 20
    coordinates: [  0.333333333333333,  0.000000000000000,  0.666666666666667 ]
    mass: 107.868200
    reduced_to: 1
  - symbol: Ag # 21
    coordinates: [  0.666666666666667,  0.000000000000000,  0.666666666666667 ]
    mass: 107.868200
    reduced_to: 1
  - symbol: Ag # 22
    coordinates: [  0.000000000000000,  0.333333333333333,  0.666666666666667 ]
    mass: 107.868200
    reduced_to: 1
  - symbol: Ag # 23
    coordinates: [  0.333333333333333,  0.333333333333333,  0.666666666666667 ]
    mass: 107.868200
    reduced_to: 1
  - symbol: Ag # 24
    coordinates: [  0.666666666666667,  0.333333333333333,  0.666666666666667 ]
    mass: 107.868200
    reduced_to: 1
  - symbol: Ag # 25
    coordinates: [  0.000000000000000,  0.666666666666667,  0.666666666666667 ]
    mass: 107.868200
    reduced_to: 1
  - symbol: Ag # 26
    coordinates: [  0.333333333333333,  0.666666666666667,  0.666666666666667 ]
    mass: 107.868200
    reduced_to: 1
  - symbol: Ag # 27
    coordinates: [  0.666666666666667,  0.666666666666667,  0.666666666666667 ]
    mass: 107.868200
    reduced_to: 1
  - symbol: Ag # 28
    coordinates: [  0.166666666666667,  0.166666666666667,  0.166666666666667 ]
    mass: 107.868200
    reduced_to: 28
  - symbol: Ag # 29
    coordinates: [  0.500000000000000,  0.166666666666667,  0.166666666666667 ]
    mass: 107.868200
    reduced_to: 28
  - symbol: Ag # 30
    coordinates: [  0.833333333333333,  0.166666666666667,  0.166666666666667 ]
    mass: 107.868200
    reduced_to: 28
  - symbol: Ag # 31
    coordinates: [  0.166666666666667,  0.500000000000000,  0.166666666666667 ]
    mass: 107.868200
    reduced_to: 28
  - symbol: Ag # 32
    coordinates: [  0.500000000000000,  0.500000000000000,  0.166666666666667 ]
    mass: 107.868200
    reduced_to: 28
  - symbol: Ag # 33
    coordinates: [  0.833333333333333,  0.500000000000000,  0.166666666666667 ]
    mass: 107.868200
    reduced_to: 28
  - symbol: Ag # 34
    coordinates: [  0.166666666666667,  0.833333333333333,  0.166666666666667 ]
    mass: 107.868200
    reduced_to: 28
  - symbol: Ag # 35
    coordinates: [  0.500000000000000,  0.833333333333333,  0.166666666666667 ]
    mass: 107.868200
    reduced_to: 28
  - symbol: Ag # 36
    coordinates: [  0.833333333333333,  0.833333333333333,  0.166666666666667 ]
    mass: 107.868200
    reduced_to: 28
  - symbol: Ag # 37
    coordinates: [  0.166666666666667,  0.166666666666667,  0.500000000000000 ]
    mass: 107.868200
    reduced_to: 28
  - symbol: Ag # 38
    coordinates: [  0.500000000000000,  0.166666666666667,  0.500000000000000 ]
    mass: 107.868200
    reduced_to: 28
  - symbol: Ag # 39
    coordinates: [  0.833333333333333,  0.166666666666667,  0.500000000000000 ]
    mass: 107.868200
    reduced_to: 28
  - symbol: Ag # 40
    coordinates: [  0.166666666666667,  0.500000000000000,  0.500000000000000 ]
    mass: 107.868200
    reduced_to: 28
  - symbol: Ag # 41
    coordinates: [  0.500000000000000,  0.500000000000000,  0.500000000000000 ]
    mass: 107.868200
    reduced_to: 28
  - symbol: Ag # 42
    coordinates: [  0.833333333333333,  0.500000000000000,  0.500000000000000 ]
    mass: 107.868200
    reduced_to: 28
  - symbol: Ag # 43
    coordinates: [  0.166666666666667,  0.833333333333333,  0.500000000000000 ]
    mass: 107.868200
    reduced_to: 28
  - symbol: Ag # 44
    coordinates: [  0.500000000000000,  0.833333333333333,  0.500000000000000 ]
    mass: 107.868200
    reduced_to: 28
  - symbol: Ag # 45
    coordinates: [  0.833333333333333,  0.833333333333333,  0.500000000000000 ]
    mass: 107.868200
    reduced_to: 28
  - symbol: Ag # 46
    coordinates: [  0.166666666666667,  0.166666666666667,  0.833333333333333 ]
    mass: 107.868200
    reduced_to: 28
  - symbol: Ag # 47
    coordinates: [  0.500000000000000,  0.166666666666667,  0.833333333333333 ]
    mass: 107.868200
    reduced_to: 28
  - symbol: Ag # 48
    coordinates: [  0.833333333333333,  0.166666666666667,  0.833333333333333 ]
    mass: 107.868200
    reduced_to: 28
  - symbol: Ag # 49
    coordinates: [  0.166666666666667,  0.500000000000000,  0.833333333333333 ]
    mass: 107.868200
    reduced_to: 28
  - symbol: Ag # 50
    coordinates: [  0.500000000000000,  0.500000000000000,  0.833333333333333 ]
    mass: 107.868200
    reduced_to: 28
  - symbol: Ag # 51
    coordinates: [  0.833333333333333,  0.500000000000000,  0.833333333333333 ]
    mass: 107.868200
    reduced_to: 28
  - symbol: Ag # 52
    coordinates: [  0.166666666666667,  0.833333333333333,  0.833333333333333 ]
    mass: 107.868200
    reduced_to: 28
  - symbol: Ag # 53
    coordinates: [  0.500000000000000,  0.833333333333333,  0.833333333333333 ]
    mass: 107.868200
    reduced_to: 28
  - symbol: Ag # 54
    coordinates: [  0.833333333333333,  0.833333333333333,  0.833333333333333 ]
    mass: 107.868200
    reduced_to: 28
  - symbol: Bi # 55
    coordinates: [  0.253126932085449,  0.080206401247884,  0.086690343317017 ]
    mass: 208.980400
    reduced_to: 55
  - symbol: Bi # 56
    coordinates: [  0.586460265418782,  0.080206401247884,  0.086690343317017 ]
    mass: 208.980400
    reduced_to: 55
  - symbol: Bi # 57
    coordinates: [  0.919793598752116,  0.080206401247884,  0.086690343317017 ]
    mass: 208.980400
    reduced_to: 55
  - symbol: Bi # 58
    coordinates: [  0.253126932085449,  0.413539734581218,  0.086690343317017 ]
    mass: 208.980400
    reduced_to: 55
  - symbol: Bi # 59
    coordinates: [  0.586460265418782,  0.413539734581218,  0.086690343317017 ]
    mass: 208.980400
    reduced_to: 55
  - symbol: Bi # 60
    coordinates: [  0.919793598752116,  0.413539734581218,  0.086690343317017 ]
    mass: 208.980400
    reduced_to: 55
  - symbol: Bi # 61
    coordinates: [  0.253126932085449,  0.746873067914551,  0.086690343317017 ]
    mass: 208.980400
    reduced_to: 55
  - symbol: Bi # 62
    coordinates: [  0.586460265418782,  0.746873067914551,  0.086690343317017 ]
    mass: 208.980400
    reduced_to: 55
  - symbol: Bi # 63
    coordinates: [  0.919793598752116,  0.746873067914551,  0.086690343317017 ]
    mass: 208.980400
    reduced_to: 55
  - symbol: Bi # 64
    coordinates: [  0.253126932085449,  0.080206401247884,  0.420023676650351 ]
    mass: 208.980400
    reduced_to: 55
  - symbol: Bi # 65
    coordinates: [  0.586460265418782,  0.080206401247884,  0.420023676650351 ]
    mass: 208.980400
    reduced_to: 55
  - symbol: Bi # 66
    coordinates: [  0.919793598752116,  0.080206401247884,  0.420023676650351 ]
    mass: 208.980400
    reduced_to: 55
  - symbol: Bi # 67
    coordinates: [  0.253126932085449,  0.413539734581218,  0.420023676650351 ]
    mass: 208.980400
    reduced_to: 55
  - symbol: Bi # 68
    coordinates: [  0.586460265418782,  0.413539734581218,  0.420023676650351 ]
    mass: 208.980400
    reduced_to: 55
  - symbol: Bi # 69
    coordinates: [  0.919793598752116,  0.413539734581218,  0.420023676650351 ]
    mass: 208.980400
    reduced_to: 55
  - symbol: Bi # 70
    coordinates: [  0.253126932085449,  0.746873067914551,  0.420023676650351 ]
    mass: 208.980400
    reduced_to: 55
  - symbol: Bi # 71
    coordinates: [  0.586460265418782,  0.746873067914551,  0.420023676650351 ]
    mass: 208.980400
    reduced_to: 55
  - symbol: Bi # 72
    coordinates: [  0.919793598752116,  0.746873067914551,  0.420023676650351 ]
    mass: 208.980400
    reduced_to: 55
  - symbol: Bi # 73
    coordinates: [  0.253126932085449,  0.080206401247884,  0.753357009983684 ]
    mass: 208.980400
    reduced_to: 55
  - symbol: Bi # 74
    coordinates: [  0.586460265418782,  0.080206401247884,  0.753357009983684 ]
    mass: 208.980400
    reduced_to: 55
  - symbol: Bi # 75
    coordinates: [  0.919793598752116,  0.080206401247884,  0.753357009983684 ]
    mass: 208.980400
    reduced_to: 55
  - symbol: Bi # 76
    coordinates: [  0.253126932085449,  0.413539734581218,  0.753357009983684 ]
    mass: 208.980400
    reduced_to: 55
  - symbol: Bi # 77
    coordinates: [  0.586460265418782,  0.413539734581218,  0.753357009983684 ]
    mass: 208.980400
    reduced_to: 55
  - symbol: Bi # 78
    coordinates: [  0.919793598752116,  0.413539734581218,  0.753357009983684 ]
    mass: 208.980400
    reduced_to: 55
  - symbol: Bi # 79
    coordinates: [  0.253126932085449,  0.746873067914551,  0.753357009983684 ]
    mass: 208.980400
    reduced_to: 55
  - symbol: Bi # 80
    coordinates: [  0.586460265418782,  0.746873067914551,  0.753357009983684 ]
    mass: 208.980400
    reduced_to: 55
  - symbol: Bi # 81
    coordinates: [  0.919793598752116,  0.746873067914551,  0.753357009983684 ]
    mass: 208.980400
    reduced_to: 55
  - symbol: Bi # 82
    coordinates: [  0.080206401247884,  0.253126932085449,  0.246642990016316 ]
    mass: 208.980400
    reduced_to: 82
  - symbol: Bi # 83
    coordinates: [  0.413539734581218,  0.253126932085449,  0.246642990016316 ]
    mass: 208.980400
    reduced_to: 82
  - symbol: Bi # 84
    coordinates: [  0.746873067914551,  0.253126932085449,  0.246642990016316 ]
    mass: 208.980400
    reduced_to: 82
  - symbol: Bi # 85
    coordinates: [  0.080206401247884,  0.586460265418782,  0.246642990016316 ]
    mass: 208.980400
    reduced_to: 82
  - symbol: Bi # 86
    coordinates: [  0.413539734581218,  0.586460265418782,  0.246642990016316 ]
    mass: 208.980400
    reduced_to: 82
  - symbol: Bi # 87
    coordinates: [  0.746873067914551,  0.586460265418782,  0.246642990016316 ]
    mass: 208.980400
    reduced_to: 82
  - symbol: Bi # 88
    coordinates: [  0.080206401247884,  0.919793598752116,  0.246642990016316 ]
    mass: 208.980400
    reduced_to: 82
  - symbol: Bi # 89
    coordinates: [  0.413539734581218,  0.919793598752116,  0.246642990016316 ]
    mass: 208.980400
    reduced_to: 82
  - symbol: Bi # 90
    coordinates: [  0.746873067914551,  0.919793598752116,  0.246642990016316 ]
    mass: 208.980400
    reduced_to: 82
  - symbol: Bi # 91
    coordinates: [  0.080206401247884,  0.253126932085449,  0.579976323349649 ]
    mass: 208.980400
    reduced_to: 82
  - symbol: Bi # 92
    coordinates: [  0.413539734581218,  0.253126932085449,  0.579976323349649 ]
    mass: 208.980400
    reduced_to: 82
  - symbol: Bi # 93
    coordinates: [  0.746873067914551,  0.253126932085449,  0.579976323349649 ]
    mass: 208.980400
    reduced_to: 82
  - symbol: Bi # 94
    coordinates: [  0.080206401247884,  0.586460265418782,  0.579976323349649 ]
    mass: 208.980400
    reduced_to: 82
  - symbol: Bi # 95
    coordinates: [  0.413539734581218,  0.586460265418782,  0.579976323349649 ]
    mass: 208.980400
    reduced_to: 82
  - symbol: Bi # 96
    coordinates: [  0.746873067914551,  0.586460265418782,  0.579976323349649 ]
    mass: 208.980400
    reduced_to: 82
  - symbol: Bi # 97
    coordinates: [  0.080206401247884,  0.919793598752116,  0.579976323349649 ]
    mass: 208.980400
    reduced_to: 82
  - symbol: Bi # 98
    coordinates: [  0.413539734581218,  0.919793598752116,  0.579976323349649 ]
    mass: 208.980400
    reduced_to: 82
  - symbol: Bi # 99
    coordinates: [  0.746873067914551,  0.919793598752116,  0.579976323349649 ]
    mass: 208.980400
    reduced_to: 82
  - symbol: Bi # 100
    coordinates: [  0.080206401247884,  0.253126932085449,  0.913309656682983 ]
    mass: 208.980400
    reduced_to: 82
  - symbol: Bi # 101
    coordinates: [  0.413539734581218,  0.253126932085449,  0.913309656682983 ]
    mass: 208.980400
    reduced_to: 82
  - symbol: Bi # 102
    coordinates: [  0.746873067914551,  0.253126932085449,  0.913309656682983 ]
    mass: 208.980400
    reduced_to: 82
  - symbol: Bi # 103
    coordinates: [  0.080206401247884,  0.586460265418782,  0.913309656682983 ]
    mass: 208.980400
    reduced_to: 82
  - symbol: Bi # 104
    coordinates: [  0.413539734581218,  0.586460265418782,  0.913309656682983 ]
    mass: 208.980400
    reduced_to: 82
  - symbol: Bi # 105
    coordinates: [  0.746873067914551,  0.586460265418782,  0.913309656682983 ]
    mass: 208.980400
    reduced_to: 82
  - symbol: Bi # 106
    coordinates: [  0.080206401247884,  0.919793598752116,  0.913309656682983 ]
    mass: 208.980400
    reduced_to: 82
  - symbol: Bi # 107
    coordinates: [  0.413539734581218,  0.919793598752116,  0.913309656682983 ]
    mass: 208.980400
    reduced_to: 82
  - symbol: Bi # 108
    coordinates: [  0.746873067914551,  0.919793598752116,  0.913309656682983 ]
    mass: 208.980400
    reduced_to: 82
  - symbol: O # 109
    coordinates: [  0.112101046151011,  0.221232287182322,  0.162921650892218 ]
    mass: 15.999400
    reduced_to: 109
  - symbol: O # 110
    coordinates: [  0.445434379484345,  0.221232287182322,  0.162921650892218 ]
    mass: 15.999400
    reduced_to: 109
  - symbol: O # 111
    coordinates: [  0.778767712817678,  0.221232287182322,  0.162921650892218 ]
    mass: 15.999400
    reduced_to: 109
  - symbol: O # 112
    coordinates: [  0.112101046151011,  0.554565620515655,  0.162921650892218 ]
    mass: 15.999400
    reduced_to: 109
  - symbol: O # 113
    coordinates: [  0.445434379484345,  0.554565620515655,  0.162921650892218 ]
    mass: 15.999400
    reduced_to: 109
  - symbol: O # 114
    coordinates: [  0.778767712817678,  0.554565620515655,  0.162921650892218 ]
    mass: 15.999400
    reduced_to: 109
  - symbol: O # 115
    coordinates: [  0.112101046151011,  0.887898953848989,  0.162921650892218 ]
    mass: 15.999400
    reduced_to: 109
  - symbol: O # 116
    coordinates: [  0.445434379484345,  0.887898953848989,  0.162921650892218 ]
    mass: 15.999400
    reduced_to: 109
  - symbol: O # 117
    coordinates: [  0.778767712817678,  0.887898953848989,  0.162921650892218 ]
    mass: 15.999400
    reduced_to: 109
  - symbol: O # 118
    coordinates: [  0.112101046151011,  0.221232287182322,  0.496254984225551 ]
    mass: 15.999400
    reduced_to: 109
  - symbol: O # 119
    coordinates: [  0.445434379484345,  0.221232287182322,  0.496254984225551 ]
    mass: 15.999400
    reduced_to: 109
  - symbol: O # 120
    coordinates: [  0.778767712817678,  0.221232287182322,  0.496254984225551 ]
    mass: 15.999400
    reduced_to: 109
  - symbol: O # 121
    coordinates: [  0.112101046151011,  0.554565620515655,  0.496254984225551 ]
    mass: 15.999400
    reduced_to: 109
  - symbol: O # 122
    coordinates: [  0.445434379484345,  0.554565620515655,  0.496254984225551 ]
    mass: 15.999400
    reduced_to: 109
  - symbol: O # 123
    coordinates: [  0.778767712817678,  0.554565620515655,  0.496254984225551 ]
    mass: 15.999400
    reduced_to: 109
  - symbol: O # 124
    coordinates: [  0.112101046151011,  0.887898953848989,  0.496254984225551 ]
    mass: 15.999400
    reduced_to: 109
  - symbol: O # 125
    coordinates: [  0.445434379484345,  0.887898953848989,  0.496254984225551 ]
    mass: 15.999400
    reduced_to: 109
  - symbol: O # 126
    coordinates: [  0.778767712817678,  0.887898953848989,  0.496254984225551 ]
    mass: 15.999400
    reduced_to: 109
  - symbol: O # 127
    coordinates: [  0.112101046151011,  0.221232287182322,  0.829588317558885 ]
    mass: 15.999400
    reduced_to: 109
  - symbol: O # 128
    coordinates: [  0.445434379484345,  0.221232287182322,  0.829588317558885 ]
    mass: 15.999400
    reduced_to: 109
  - symbol: O # 129
    coordinates: [  0.778767712817678,  0.221232287182322,  0.829588317558885 ]
    mass: 15.999400
    reduced_to: 109
  - symbol: O # 130
    coordinates: [  0.112101046151011,  0.554565620515655,  0.829588317558885 ]
    mass: 15.999400
    reduced_to: 109
  - symbol: O # 131
    coordinates: [  0.445434379484345,  0.554565620515655,  0.829588317558885 ]
    mass: 15.999400
    reduced_to: 109
  - symbol: O # 132
    coordinates: [  0.778767712817678,  0.554565620515655,  0.829588317558885 ]
    mass: 15.999400
    reduced_to: 109
  - symbol: O # 133
    coordinates: [  0.112101046151011,  0.887898953848989,  0.829588317558885 ]
    mass: 15.999400
    reduced_to: 109
  - symbol: O # 134
    coordinates: [  0.445434379484345,  0.887898953848989,  0.829588317558885 ]
    mass: 15.999400
    reduced_to: 109
  - symbol: O # 135
    coordinates: [  0.778767712817678,  0.887898953848989,  0.829588317558885 ]
    mass: 15.999400
    reduced_to: 109
  - symbol: O # 136
    coordinates: [  0.221232287182322,  0.112101046151011,  0.170411682441115 ]
    mass: 15.999400
    reduced_to: 136
  - symbol: O # 137
    coordinates: [  0.554565620515655,  0.112101046151011,  0.170411682441115 ]
    mass: 15.999400
    reduced_to: 136
  - symbol: O # 138
    coordinates: [  0.887898953848989,  0.112101046151011,  0.170411682441115 ]
    mass: 15.999400
    reduced_to: 136
  - symbol: O # 139
    coordinates: [  0.221232287182322,  0.445434379484345,  0.170411682441115 ]
    mass: 15.999400
    reduced_to: 136
  - symbol: O # 140
    coordinates: [  0.554565620515655,  0.445434379484345,  0.170411682441115 ]
    mass: 15.999400
    reduced_to: 136
  - symbol: O # 141
    coordinates: [  0.887898953848989,  0.445434379484345,  0.170411682441115 ]
    mass: 15.999400
    reduced_to: 136
  - symbol: O # 142
    coordinates: [  0.221232287182322,  0.778767712817678,  0.170411682441115 ]
    mass: 15.999400
    reduced_to: 136
  - symbol: O # 143
    coordinates: [  0.554565620515655,  0.778767712817678,  0.170411682441115 ]
    mass: 15.999400
    reduced_to: 136
  - symbol: O # 144
    coordinates: [  0.887898953848989,  0.778767712817678,  0.170411682441115 ]
    mass: 15.999400
    reduced_to: 136
  - symbol: O # 145
    coordinates: [  0.221232287182322,  0.112101046151011,  0.503745015774448 ]
    mass: 15.999400
    reduced_to: 136
  - symbol: O # 146
    coordinates: [  0.554565620515655,  0.112101046151011,  0.503745015774448 ]
    mass: 15.999400
    reduced_to: 136
  - symbol: O # 147
    coordinates: [  0.887898953848989,  0.112101046151011,  0.503745015774448 ]
    mass: 15.999400
    reduced_to: 136
  - symbol: O # 148
    coordinates: [  0.221232287182322,  0.445434379484345,  0.503745015774448 ]
    mass: 15.999400
    reduced_to: 136
  - symbol: O # 149
    coordinates: [  0.554565620515655,  0.445434379484345,  0.503745015774448 ]
    mass: 15.999400
    reduced_to: 136
  - symbol: O # 150
    coordinates: [  0.887898953848989,  0.445434379484345,  0.503745015774448 ]
    mass: 15.999400
    reduced_to: 136
  - symbol: O # 151
    coordinates: [  0.221232287182322,  0.778767712817678,  0.503745015774448 ]
    mass: 15.999400
    reduced_to: 136
  - symbol: O # 152
    coordinates: [  0.554565620515655,  0.778767712817678,  0.503745015774448 ]
    mass: 15.999400
    reduced_to: 136
  - symbol: O # 153
    coordinates: [  0.887898953848989,  0.778767712817678,  0.503745015774448 ]
    mass: 15.999400
    reduced_to: 136
  - symbol: O # 154
    coordinates: [  0.221232287182322,  0.112101046151011,  0.837078349107782 ]
    mass: 15.999400
    reduced_to: 136
  - symbol: O # 155
    coordinates: [  0.554565620515655,  0.112101046151011,  0.837078349107782 ]
    mass: 15.999400
    reduced_to: 136
  - symbol: O # 156
    coordinates: [  0.887898953848989,  0.112101046151011,  0.837078349107782 ]
    mass: 15.999400
    reduced_to: 136
  - symbol: O # 157
    coordinates: [  0.221232287182322,  0.445434379484345,  0.837078349107782 ]
    mass: 15.999400
    reduced_to: 136
  - symbol: O # 158
    coordinates: [  0.554565620515655,  0.445434379484345,  0.837078349107782 ]
    mass: 15.999400
    reduced_to: 136
  - symbol: O # 159
    coordinates: [  0.887898953848989,  0.445434379484345,  0.837078349107782 ]
    mass: 15.999400
    reduced_to: 136
  - symbol: O # 160
    coordinates: [  0.221232287182322,  0.778767712817678,  0.837078349107782 ]
    mass: 15.999400
    reduced_to: 136
  - symbol: O # 161
    coordinates: [  0.554565620515655,  0.778767712817678,  0.837078349107782 ]
    mass: 15.999400
    reduced_to: 136
  - symbol: O # 162
    coordinates: [  0.887898953848989,  0.778767712817678,  0.837078349107782 ]
    mass: 15.999400
    reduced_to: 136
  - symbol: O # 163
    coordinates: [  0.279532680381265,  0.053800652952068,  0.293920173414950 ]
    mass: 15.999400
    reduced_to: 163
  - symbol: O # 164
    coordinates: [  0.612866013714598,  0.053800652952068,  0.293920173414950 ]
    mass: 15.999400
    reduced_to: 163
  - symbol: O # 165
    coordinates: [  0.946199347047932,  0.053800652952068,  0.293920173414950 ]
    mass: 15.999400
    reduced_to: 163
  - symbol: O # 166
    coordinates: [  0.279532680381265,  0.387133986285402,  0.293920173414950 ]
    mass: 15.999400
    reduced_to: 163
  - symbol: O # 167
    coordinates: [  0.612866013714598,  0.387133986285402,  0.293920173414950 ]
    mass: 15.999400
    reduced_to: 163
  - symbol: O # 168
    coordinates: [  0.946199347047932,  0.387133986285402,  0.293920173414950 ]
    mass: 15.999400
    reduced_to: 163
  - symbol: O # 169
    coordinates: [  0.279532680381265,  0.720467319618735,  0.293920173414950 ]
    mass: 15.999400
    reduced_to: 163
  - symbol: O # 170
    coordinates: [  0.612866013714598,  0.720467319618735,  0.293920173414950 ]
    mass: 15.999400
    reduced_to: 163
  - symbol: O # 171
    coordinates: [  0.946199347047932,  0.720467319618735,  0.293920173414950 ]
    mass: 15.999400
    reduced_to: 163
  - symbol: O # 172
    coordinates: [  0.279532680381265,  0.053800652952068,  0.627253506748283 ]
    mass: 15.999400
    reduced_to: 163
  - symbol: O # 173
    coordinates: [  0.612866013714598,  0.053800652952068,  0.627253506748283 ]
    mass: 15.999400
    reduced_to: 163
  - symbol: O # 174
    coordinates: [  0.946199347047932,  0.053800652952068,  0.627253506748283 ]
    mass: 15.999400
    reduced_to: 163
  - symbol: O # 175
    coordinates: [  0.279532680381265,  0.387133986285402,  0.627253506748283 ]
    mass: 15.999400
    reduced_to: 163
  - symbol: O # 176
    coordinates: [  0.612866013714598,  0.387133986285402,  0.627253506748283 ]
    mass: 15.999400
    reduced_to: 163
  - symbol: O # 177
    coordinates: [  0.946199347047932,  0.387133986285402,  0.627253506748283 ]
    mass: 15.999400
    reduced_to: 163
  - symbol: O # 178
    coordinates: [  0.279532680381265,  0.720467319618735,  0.627253506748283 ]
    mass: 15.999400
    reduced_to: 163
  - symbol: O # 179
    coordinates: [  0.612866013714598,  0.720467319618735,  0.627253506748283 ]
    mass: 15.999400
    reduced_to: 163
  - symbol: O # 180
    coordinates: [  0.946199347047932,  0.720467319618735,  0.627253506748283 ]
    mass: 15.999400
    reduced_to: 163
  - symbol: O # 181
    coordinates: [  0.279532680381265,  0.053800652952068,  0.960586840081617 ]
    mass: 15.999400
    reduced_to: 163
  - symbol: O # 182
    coordinates: [  0.612866013714598,  0.053800652952068,  0.960586840081617 ]
    mass: 15.999400
    reduced_to: 163
  - symbol: O # 183
    coordinates: [  0.946199347047932,  0.053800652952068,  0.960586840081617 ]
    mass: 15.999400
    reduced_to: 163
  - symbol: O # 184
    coordinates: [  0.279532680381265,  0.387133986285402,  0.960586840081617 ]
    mass: 15.999400
    reduced_to: 163
  - symbol: O # 185
    coordinates: [  0.612866013714598,  0.387133986285402,  0.960586840081617 ]
    mass: 15.999400
    reduced_to: 163
  - symbol: O # 186
    coordinates: [  0.946199347047932,  0.387133986285402,  0.960586840081617 ]
    mass: 15.999400
    reduced_to: 163
  - symbol: O # 187
    coordinates: [  0.279532680381265,  0.720467319618735,  0.960586840081617 ]
    mass: 15.999400
    reduced_to: 163
  - symbol: O # 188