nqpoint: 1515   
npath: 15     
segment_nqpoint:
- 101
- 101
- 101
- 101
- 101
- 101
- 101
- 101
- 101
- 101
- 101
- 101
- 101
- 101
- 101
reciprocal_lattice:
- [  -0.28254161,  -0.08069968,   0.01166474 ] # a*
- [   0.28254161,  -0.08069968,   0.01166474 ] # b*
- [  -0.00000000,  -0.00000000,   0.15282859 ] # c*
natom: 8      
lattice:
- [    -1.769650875591755,    -6.195811489967705,     0.000000000000000 ] # a
- [     1.769650875591755,    -6.195811489967705,     0.000000000000000 ] # b
- [     0.000000000000000,     0.945798904897284,     6.543278527973584 ] # c
points:
- symbol: Ag # 1
  coordinates: [  0.000000000000000,  0.000000000000000,  0.000000000000000 ]
  mass: 107.868200
- symbol: Ag # 2
  coordinates: [  0.500000000000000,  0.500000000000000,  0.500000000000000 ]
  mass: 107.868200
- symbol: Bi # 3
  coordinates: [  0.240619203743652,  0.240619203743653,  0.739928970048948 ]
  mass: 208.980400
- symbol: Bi # 4
  coordinates: [  0.759380796256347,  0.759380796256348,  0.260071029951052 ]
  mass: 208.980400
- symbol: O # 5
  coordinates: [  0.663696861546966,  0.663696861546966,  0.511235047323346 ]
  mass: 15.999400
- symbol: O # 6
  coordinates: [  0.336303138453034,  0.336303138453034,  0.488764952676655 ]
  mass: 15.999400
- symbol: O # 7
  coordinates: [  0.161401958856205,  0.161401958856205,  0.118239479755150 ]
  mass: 15.999400
- symbol: O # 8
  coordinates: [  0.838598041143795,  0.838598041143795,  0.881760520244850 ]
  mass: 15.999400

phonon:
- q-position: [   -0.5579880,   -0.5579880,    0.4325263 ]
  distance:    0.0000000
  band:
  - # 1
    frequency:    0.6788278778
  - # 2
    frequency:    1.1397032013
  - # 3
    frequency:    1.4384065994
  - # 4
    frequency:    1.5867452898
  - # 5
    frequency:    1.9634416322
  - # 6
    frequency:    1.9793497765
  - # 7
    frequency:    2.0492327385
  - # 8
    frequency:    2.1808996366
  - # 9
    frequency:    2.7890086990
  - # 10
    frequency:    3.4502464446
  - # 11
    frequency:    5.0124810345
  - # 12
    frequency:    5.0287746187
  - # 13
    frequency:    5.2758967840
  - # 14
    frequency:    6.1476329695
  - # 15
    frequency:    6.5653524252
  - # 16
    frequency:    7.6265980093
  - # 17
    frequency:    9.7156337754
  - # 18
    frequency:   10.4622354052
  - # 19
    frequency:   10.9426782867
  - # 20
    frequency:   12.2487070740
  - # 21
    frequency:   15.6935123503
  - # 22
    frequency:   16.4385067906
  - # 23
    frequency:   17.5004478680
  - # 24
    frequency:   18.2564404727

- q-position: [   -0.5524081,   -0.5524081,    0.4282010 ]
  distance:    0.0010454
  band:
  - # 1
    frequency:    0.6745853339
  - # 2
    frequency:    1.1399127612
  - # 3
    frequency:    1.4430441458
  - # 4
    frequency:    1.5879104133
  - # 5
    frequency:    1.9639330059
  - # 6
    frequency:    1.9750568759
  - # 7
    frequency:    2.0489705692
  - # 8
    frequency:    2.1766899917
  - # 9
    frequency:    2.7936081216
  - # 10
    frequency:    3.4456997748
  - # 11
    frequency:    5.0145845651
  - # 12
    frequency:    5.0282495246
  - # 13
    frequency:    5.2777553382
  - # 14
    frequency:    6.1501998761
  - # 15
    frequency:    6.5574698419
  - # 16
    frequency:    7.6237708979
  - # 17
    frequency:    9.7191789696
  - # 18
    frequency:   10.4610373893
  - # 19
    frequency:   10.9477255359
  - # 20
    frequency:   12.2345294380
  - # 21
    frequency:   15.6907691409
  - # 22
    frequency:   16.4368158212
  - # 23
    frequency:   17.5053219027
  - # 24
    frequency:   18.2623754888

- q-position: [   -0.5468283,   -0.5468283,    0.4238758 ]
  distance:    0.0020908
  band:
  - # 1
    frequency:    0.6702422668
  - # 2
    frequency:    1.1399892673
  - # 3
    frequency:    1.4478073032
  - # 4
    frequency:    1.5892165179
  - # 5
    frequency:    1.9643721305
  - # 6
    frequency:    1.9694387147
  - # 7
    frequency:    2.0486234611
  - # 8
    frequency:    2.1732408638
  - # 9
    frequency:    2.7980856174
  - # 10
    frequency:    3.4415880273
  - # 11
    frequency:    5.0147914170
  - # 12
    frequency:    5.0281759144
  - # 13
    frequency:    5.2801343643
  - # 14
    frequency:    6.1535207379
  - # 15
    frequency:    6.5501347398
  - # 16
    frequency:    7.6207606968
  - # 17
    frequency:    9.7227471503
  - # 18
    frequency:   10.4597802082
  - # 19
    frequency:   10.9520571441
  - # 20
    frequency:   12.2205934249
  - # 21
    frequency:   15.6883870922
  - # 22
    frequency:   16.4349452621
  - # 23
    frequency:   17.5105044346
  - # 24
    frequency:   18.2679661926

- q-position: [   -0.5412484,   -0.5412484,    0.4195505 ]
  distance:    0.0031362
  band:
  - # 1
    frequency:    0.6658082473
  - # 2
    frequency:    1.1399352662
  - # 3
    frequency:    1.4526920935
  - # 4
    frequency:    1.5906611064
  - # 5
    frequency:    1.9625350812
  - # 6
    frequency:    1.9647596220
  - # 7
    frequency:    2.0481901164
  - # 8
    frequency:    2.1705226471
  - # 9
    frequency:    2.8024354477
  - # 10
    frequency:    3.4379073123
  - # 11
    frequency:    5.0131608573
  - # 12
    frequency:    5.0285552880
  - # 13
    frequency:    5.2829979756
  - # 14
    frequency:    6.1575416955
  - # 15
    frequency:    6.5433751377
  - # 16
    frequency:    7.6175692783
  - # 17
    frequency:    9.7263331495
  - # 18
    frequency:   10.4584667762
  - # 19
    frequency:   10.9556509039
  - # 20
    frequency:   12.2069246130
  - # 21
    frequency:   15.6863726634
  - # 22
    frequency:   16.4329012601
  - # 23
    frequency:   17.5159869874
  - # 24
    frequency:   18.2732121028

- q-position: [   -0.5356685,   -0.5356685,    0.4152252 ]
  distance:    0.0041816
  band:
  - # 1
    frequency:    0.6612927307
  - # 2
    frequency:    1.1397534446
  - # 3
    frequency:    1.4576925283
  - # 4
    frequency:    1.5922414328
  - # 5
    frequency:    1.9544169204
  - # 6
    frequency:    1.9650961801
  - # 7
    frequency:    2.0476694891
  - # 8
    frequency:    2.1684755235
  - # 9
    frequency:    2.8066518609
  - # 10
    frequency:    3.4346535401
  - # 11
    frequency:    5.0097823477
  - # 12
    frequency:    5.0293886703
  - # 13
    frequency:    5.2862926432
  - # 14
    frequency:    6.1621899657
  - # 15
    frequency:    6.5372261626
  - # 16
    frequency:    7.6141984044
  - # 17
    frequency:    9.7299318853
  - # 18
    frequency:   10.4571001698
  - # 19
    frequency:   10.9584864082
  - # 20
    frequency:   12.1935485763
  - # 21
    frequency:   15.6847315061
  - # 22
    frequency:   16.4306902911
  - # 23
    frequency:   17.5217606428
  - # 24
    frequency:   18.2781136702

- q-position: [   -0.5300886,   -0.5300886,    0.4109000 ]
  distance:    0.0052270
  band:
  - # 1
    frequency:    0.6567049980
  - # 2
    frequency:    1.1394466380
  - # 3
    frequency:    1.4628004482
  - # 4
    frequency:    1.5939545230
  - # 5
    frequency:    1.9451779307
  - # 6
    frequency:    1.9653825823
  - # 7
    frequency:    2.0470607925
  - # 8
    frequency:    2.1670180608
  - # 9
    frequency:    2.8107289522
  - # 10
    frequency:    3.4318225343
  - # 11
    frequency:    5.0047677249
  - # 12
    frequency:    5.0306766117
  - # 13
    frequency:    5.2899539216
  - # 14
    frequency:    6.1673744296
  - # 15
    frequency:    6.5317305713
  - # 16
    frequency:    7.6106497302
  - # 17
    frequency:    9.7335383657
  - # 18
    frequency:   10.4556836209
  - # 19
    frequency:   10.9605452932
  - # 20
    frequency:   12.1804906086
  - # 21
    frequency:   15.6834684611
  - # 22
    frequency:   16.4283190734
  - # 23
    frequency:   17.5278160900
  - # 24
    frequency:   18.2826722966

- q-position: [   -0.5245087,   -0.5245087,    0.4065747 ]
  distance:    0.0062724
  band:
  - # 1
    frequency:    0.6520540980
  - # 2
    frequency:    1.1390178324
  - # 3
    frequency:    1.4680053470
  - # 4
    frequency:    1.5957971943
  - # 5
    frequency:    1.9349250681
  - # 6
    frequency:    1.9656196776
  - # 7
    frequency:    2.0463635053
  - # 8
    frequency:    2.1660569393
  - # 9
    frequency:    2.8146605247
  - # 10
    frequency:    3.4294101417
  - # 11
    frequency:    4.9982428134
  - # 12
    frequency:    5.0324191906
  - # 13
    frequency:    5.2939134473
  - # 14
    frequency:    6.1729867736
  - # 15
    frequency:    6.5269390158
  - # 16
    frequency:    7.6069248074
  - # 17
    frequency:    9.7371476914
  - # 18
    frequency:   10.4542205104
  - # 19
    frequency:   10.9618114812
  - # 20
    frequency:   12.1677754348
  - # 21
    frequency:   15.6825875582
  - # 22
    frequency:   16.4257944885
  - # 23
    frequency:   17.5341436655
  - # 24
    frequency:   18.2868903533

- q-position: [   -0.5189289,   -0.5189289,    0.4022494 ]
  distance:    0.0073178
  band:
  - # 1
    frequency:    0.6473487902
  - # 2
    frequency:    1.1384701580
  - # 3
    frequency:    1.4732941718
  - # 4
    frequency:    1.5977660759
  - # 5
    frequency:    1.9237700568
  - # 6
    frequency:    1.9658083790
  - # 7
    frequency:    2.0455773788
  - # 8
    frequency:    2.1654957126
  - # 9
    frequency:    2.8184399533
  - # 10
    frequency:    3.4274123380
  - # 11
    frequency:    4.9903398796
  - # 12
    frequency:    5.0346160162
  - # 13
    frequency:    5.2981048950
  - # 14
    frequency:    6.1789032548
  - # 15
    frequency:    6.5229098853
  - # 16
    frequency:    7.6030250879
  - # 17
    frequency:    9.7407550595
  - # 18
    frequency:   10.4527143604
  - # 19
    frequency:   10.9622714190
  - # 20
    frequency:   12.1554269170
  - # 21
    frequency:   15.6820920198
  - # 22
    frequency:   16.4231235093
  - # 23
    frequency:   17.5407333824
  - # 24
    frequency:   18.2907712005

- q-position: [   -0.5133490,   -0.5133490,    0.3979242 ]
  distance:    0.0083632
  band:
  - # 1
    frequency:    0.6425974898
  - # 2
    frequency:    1.1378068761
  - # 3
    frequency:    1.4786510899
  - # 4
    frequency:    1.5998576273
  - # 5
    frequency:    1.9118230873
  - # 6
    frequency:    1.9659496556
  - # 7
    frequency:    2.0447024413
  - # 8
    frequency:    2.1652414321
  - # 9
    frequency:    2.8220600564
  - # 10
    frequency:    3.4258253250
  - # 11
    frequency:    4.9811917191
  - # 12
    frequency:    5.0372662341
  - # 13
    frequency:    5.3024681946
  - # 14
    frequency:    6.1849872080
  - # 15
    frequency:    6.5197085122
  - # 16
    frequency:    7.5989519286
  - # 17
    frequency:    9.7443557668
  - # 18
    frequency:   10.4511688252
  - # 19
    frequency:   10.9619143046
  - # 20
    frequency:   12.1434677597
  - # 21
    frequency:   15.6819842674
  - # 22
    frequency:   16.4203131359
  - # 23
    frequency:   17.5475749494
  - # 24
    frequency:   18.2943192075

- q-position: [   -0.5077691,   -0.5077691,    0.3935989 ]
  distance:    0.0094086
  band:
  - # 1
    frequency:    0.6378082146
  - # 2
    frequency:    1.1370313582
  - # 3
    frequency:    1.4840572069
  - # 4
    frequency:    1.6020681581
  - # 5
    frequency:    1.8991889536
  - # 6
    frequency:    1.9660445243
  - # 7
    frequency:    2.0437390044
  - # 8
    frequency:    2.1652088947
  - # 9
    frequency:    2.8255129786
  - # 10
    frequency:    3.4246456188
  - # 11
    frequency:    4.9709275633
  - # 12
    frequency:    5.0403685313
  - # 13
    frequency:    5.3069519159
  - # 14
    frequency:    6.1910924479
  - # 15
    frequency:    6.5174054966
  - # 16
    frequency:    7.5947065960
  - # 17
    frequency:    9.7479452133
  - # 18
    frequency:   10.4495876820
  - # 19
    frequency:   10.9607322958
  - # 20
    frequency:   12.1319192234
  - # 21
    frequency:   15.6822659322
  - # 22
    frequency:   16.4173703408
  - # 23
    frequency:   17.5546577782
  - # 24
    frequency:   18.2975397741

- q-position: [   -0.5021892,   -0.5021892,    0.3892737 ]
  distance:    0.0104540
  band:
  - # 1
    frequency:    0.6329885344
  - # 2
    frequency:    1.1361470571
  - # 3
    frequency:    1.4894902180
  - # 4
    frequency:    1.6043938449
  - # 5
    frequency:    1.8859653003
  - # 6
    frequency:    1.9660940393
  - # 7
    frequency:    2.0426876674
  - # 8
    frequency:    2.1653228598
  - # 9
    frequency:    2.8287900888
  - # 10
    frequency:    3.4238701252
  - # 11
    frequency:    4.9596705930
  - # 12
    frequency:    5.0439211432
  - # 13
    frequency:    5.3115141111
  - # 14
    frequency:    6.1970677145
  - # 15
    frequency:    6.5160739212
  - # 16
    frequency:    7.5902902711
  - # 17
    frequency:    9.7515189061
  - # 18
    frequency:   10.4479748204
  - # 19
    frequency:   10.9587206930
  - # 20
    frequency:   12.1208008543
  - # 21
    frequency:   15.6829378682
  - # 22
    frequency:   16.4143020210
  - # 23
    frequency:   17.5619709791
  - # 24
    frequency:   18.3004393529

- q-position: [   -0.4966093,   -0.4966093,    0.3849484 ]
  distance:    0.0114994
  band:
  - # 1
    frequency:    0.6281455242
  - # 2
    frequency:    1.1351574710
  - # 3
    frequency:    1.4949239682
  - # 4
    frequency:    1.6068307493
  - # 5
    frequency:    1.8722424343
  - # 6
    frequency:    1.9660992819
  - # 7
    frequency:    2.0415493226
  - # 8
    frequency:    2.1655188029
  - # 9
    frequency:    2.8318818991
  - # 10
    frequency:    3.4234962000
  - # 11
    frequency:    4.9475366728
  - # 12
    frequency:    5.0479218616
  - # 13
    frequency:    5.3161220625
  - # 14
    frequency:    6.2027622314
  - # 15
    frequency:    6.5157853266
  - # 16
    frequency:    7.5857040547
  - # 17
    frequency:    9.7550724629
  - # 18
    frequency:   10.4463342313
  - # 19
    frequency:   10.9558780878
  - # 20
    frequency:   12.1101302382
  - # 21
    frequency:   15.6840001697
  - # 22
    frequency:   16.4111149589
  - # 23
    frequency:   17.5695033451
  - # 24
    frequency:   18.3030254741

- q-position: [   -0.4910295,   -0.4910295,    0.3806231 ]
  distance:    0.0125448
  band:
  - # 1
    frequency:    0.6232857202
  - # 2
    frequency:    1.1340660983
  - # 3
    frequency:    1.5003278848
  - # 4
    frequency:    1.6093748332
  - # 5
    frequency:    1.8581041885
  - # 6
    frequency:    1.9660613478
  - # 7
    frequency:    2.0403251603
  - # 8
    frequency:    2.1657427523
  - # 9
    frequency:    2.8347780071
  - # 10
    frequency:    3.4235216923
  - # 11
    frequency:    4.9346339142
  - # 12
    frequency:    5.0523680435
  - # 13
    frequency:    5.3207513694
  - # 14
    frequency:    6.2080322511
  - # 15
    frequency:    6.5166045299
  - # 16
    frequency:    7.5809489727
  - # 17
    frequency:    9.7586016164
  - # 18
    frequency:   10.4446699949
  - # 19
    frequency:   10.9522064726
  - # 20
    frequency:   12.0999227865
  - # 21
    frequency:   15.6854521900
  - # 22
    frequency:   16.4078157917
  - # 23
    frequency:   17.5772433246
  - # 24
    frequency:   18.3053067716

- q-position: [   -0.4854496,   -0.4854496,    0.3762979 ]
  distance:    0.0135902
  band:
  - # 1
    frequency:    0.6184150805
  - # 2
    frequency:    1.1328763845
  - # 3
    frequency:    1.5056662387
  - # 4
    frequency:    1.6120219751
  - # 5
    frequency:    1.8436294580
  - # 6
    frequency:    1.9659813337
  - # 7
    frequency:    2.0390166743
  - # 8
    frequency:    2.1659506309
  - # 9
    frequency:    2.8374670671
  - # 10
    frequency:    3.4239449681
  - # 11
    frequency:    4.9210627433
  - # 12
    frequency:    5.0572566210
  - # 13
    frequency:    5.3253847206
  - # 14
    frequency:    6.2127481595
  - # 15
    frequency:    6.5185836920
  - # 16
    frequency:    7.5760259820
  - # 17
    frequency:    9.7621022185
  - # 18
    frequency:   10.4429862677
  - # 19
    frequency:   10.9477113019
  - # 20
    frequency:   12.0901915617
  - # 21
    frequency:   15.6872925633
  - # 22
    frequency:   16.4044109879
  - # 23
    frequency:   17.5851789818
  - # 24
    frequency:   18.3072930123

- q-position: [   -0.4798697,   -0.4798697,    0.3719726 ]
  distance:    0.0146356
  band:
  - # 1
    frequency:    0.6135389497
  - # 2
    frequency:    1.1315916591
  - # 3
    frequency:    1.5108971688
  - # 4
    frequency:    1.6147679833
  - # 5
    frequency:    1.8288941886
  - # 6
    frequency:    1.9658603215
  - # 7
    frequency:    2.0376256682
  - # 8
    frequency:    2.1661073856
  - # 9
    frequency:    2.8399367921
  - # 10
    frequency:    3.4247649133
  - # 11
    frequency:    4.9069162431
  - # 12
    frequency:    5.0625841117
  - # 13
    frequency:    5.3300105906
  - # 14
    frequency:    6.2168013691
  - # 15
    frequency:    6.5217563950
  - # 16
    frequency:    7.5709359757
  - # 17
    frequency:    9.7655702454
  - # 18
    frequency:   10.4412872693
  - # 19
    frequency:   10.9424015039
  - # 20
    frequency:   12.0809471482
  - # 21
    frequency:   15.6895192289
  - # 22
    frequency:   16.4009068320
  - # 23
    frequency:   17.5932979453
  - # 24
    frequency:   18.3089951270

- q-position: [   -0.4742898,   -0.4742898,    0.3676473 ]
  distance:    0.0156810
  band:
  - # 1
    frequency:    0.6086620291
  - # 2
    frequency:    1.1302150618
  - # 3
    frequency:    1.5159713862
  - # 4
    frequency:    1.6176086100
  - # 5
    frequency:    1.8139737300
  - # 6
    frequency:    1.9656993611
  - # 7
    frequency:    2.0361542624
  - # 8
    frequency:    2.1661860750
  - # 9
    frequency:    2.8421739902
  - # 10
    frequency:    3.4259809140
  - # 11
    frequency:    4.8922806178
  - # 12
    frequency:    5.0683466303
  - # 13
    frequency:    5.3346220060
  - # 14
    frequency:    6.2201099901
  - # 15
    frequency:    6.5261327458
  - # 16
    frequency:    7.5656797890
  - # 17
    frequency:    9.7690018018
  - # 18
    frequency:   10.4395772682
  - # 19
    frequency:   10.9362894364
  - # 20
    frequency:   12.0721975725
  - # 21
    frequency:   15.6921294557
  - # 22
    frequency:   16.3973094170
  - # 23
    frequency:   17.6015873460
  - # 24
    frequency:   18.3104252456

- q-position: [   -0.4687099,   -0.4687099,    0.3633221 ]
  distance:    0.0167264
  band:
  - # 1
    frequency:    0.6037883518
  - # 2
    frequency:    1.1287494577
  - # 3
    frequency:    1.5208304467
  - # 4
    frequency:    1.6205395627
  - # 5
    frequency:    1.7989455763
  - # 6
    frequency:    1.9654994505
  - # 7
    frequency:    2.0346049026
  - # 8
    frequency:    2.1661670043
  - # 9
    frequency:    2.8441646371
  - # 10
    frequency:    3.4275928148
  - # 11
    frequency:    4.8772356927
  - # 12
    frequency:    5.0745399007
  - # 13
    frequency:    5.3392154548
  - # 14
    frequency:    6.2226222890
  - # 15
    frequency:    6.5316965116
  - # 16
    frequency:    7.5602582045
  - # 17
    frequency:    9.7723931268
  - # 18
    frequency:   10.4378605668
  - # 19
    frequency:   10.9293907880
  - # 20
    frequency:   12.0639482753
  - # 21
    frequency:   15.6951198685
  - # 22
    frequency:   16.3936246434
  - # 23
    frequency:   17.6100337435
  - # 24
    frequency:   18.3115967345

- q-position: [   -0.4631301,   -0.4631301,    0.3589968 ]
  distance:    0.0177718
  band:
  - # 1
    frequency:    0.5989212627
  - # 2
    frequency:    1.1271973381
  - # 3
    frequency:    1.5254044519
  - # 4
    frequency:    1.6235565160
  - # 5
    frequency:    1.7838925927
  - # 6
    frequency:    1.9652615137
  - # 7
    frequency:    2.0329803698
  - # 8
    frequency:    2.1660369465
  - # 9
    frequency:    2.8458939840
  - # 10
    frequency:    3.4296008532
  - # 11
    frequency:    4.8618553987
  - # 12
    frequency:    5.0811592687
  - # 13
    frequency:    5.3437899692
  - # 14
    frequency:    6.2243172948
  - # 15
    frequency:    6.5384049427
  - # 16
    frequency:    7.5546719574
  - # 17
    frequency:    9.7757405995
  - # 18
    frequency:   10.4361414862
  - # 19
    frequency:   10.9217244249
  - # 20
    frequency:   12.0562021346
  - # 21
    frequency:   15.6984864736
  - # 22
    frequency:   16.3898582261
  - # 23
    frequency:   17.6186230417
  - # 24
    frequency:   18.3125242377

- q-position: [   -0.4575502,   -0.4575502,    0.3546716 ]
  distance:    0.0188172
  band:
  - # 1
    frequency:    0.5940634057
  - # 2
    frequency:    1.1255607067
  - # 3
    frequency:    1.5296090247
  - # 4
    frequency:    1.6266551212
  - # 5
    frequency:    1.7689068740
  - # 6
    frequency:    1.9649863746
  - # 7
    frequency:    2.0312837927
  - # 8
    frequency:    2.1657884598
  - # 9
    frequency:    2.8473467023
  - # 10
    frequency:    3.4320055738
  - # 11
    frequency:    4.8462082218
  - # 12
    frequency:    5.0881997155
  - # 13
    frequency:    5.3483463812
  - # 14
    frequency:    6.2252025237
  - # 15
    frequency:    6.5461913370
  - # 16
    frequency:    7.5489217416
  - # 17
    frequency:    9.7790407446
  - # 18
    frequency:   10.4344243506
  - # 19
    frequency:   10.9133121866
  - # 20
    frequency:   12.0489595392
  - # 21
    frequency:   15.7022246843
  - # 22
    frequency:   16.3860157068
  - # 23
    frequency:   17.6273403947
  - # 24
    frequency:   18.3132237222

- q-position: [   -0.4519703,   -0.4519703,    0.3503463 ]
  distance:    0.0198626
  band:
  - # 1
    frequency:    0.5892167152
  - # 2
    frequency:    1.1238409481
  - # 3
    frequency:    1.5333414368
  - # 4
    frequency:    1.6298310159
  - # 5
    frequency:    1.7540943680
  - # 6
    frequency:    1.9646747287
  - # 7
    frequency:    2.0295186627
  - # 8
    frequency:    2.1654192931
  - # 9
    frequency:    2.8485070602
  - # 10
    frequency:    3.4348077218
  - # 11
    frequency:    4.8303576065
  - # 12
    frequency:    5.0956558717
  - # 13
    frequency:    5.3528867357
  - # 14
    frequency:    6.2253094078
  - # 15
    frequency:    6.5549697816
  - # 16
    frequency:    7.5430082136
  - # 17
    frequency:    9.7822902385
  - # 18
    frequency:   10.4327134707
  - # 19
    frequency:   10.9041786368
  - # 20
    frequency:   12.0422185067
  - # 21
    frequency:   15.7063293452
  - # 22
    frequency:   16.3821024746
  - # 23
    frequency:   17.6361701036
  - # 24
    frequency:   18.3137125254

- q-position: [   -0.4463904,   -0.4463904,    0.3460210 ]
  distance:    0.0209080
  band:
  - # 1
    frequency:    0.5843824151
  - # 2
    frequency:    1.1220386758
  - # 3
    frequency:    1.5364759229
  - # 4
    frequency:    1.6330798318
  - # 5
    frequency:    1.7395802416
  - # 6
    frequency:    1.9643271102
  - # 7
    frequency:    2.0276888515
  - # 8
    frequency:    2.1649318668
  - # 9
    frequency:    2.8493591303
  - # 10
    frequency:    3.4380081206
  - # 11
    frequency:    4.8143623162
  - # 12
    frequency:    5.1035220313
  - # 13
    frequency:    5.3574138422
  - # 14
    frequency:    6.2246874187
  - # 15
    frequency:    6.5646411005
  - # 16
    frequency:    7.5369319984
  - # 17
    frequency:    9.7854859162
  - # 18
    frequency:   10.4310131272
  - # 19
    frequency:   10.8943507750
  - # 20
    frequency:   12.0359748418
  - # 21
    frequency:   15.7107947541
  - # 22
    frequency:   16.3781237911
  - # 23
    frequency:   17.6450955048
  - # 24
    frequency:   18.3140094068

- q-position: [   -0.4408105,   -0.4408105,    0.3416958 ]
  distance:    0.0219534
  band:
  - # 1
    frequency:    0.5795610232
  - # 2
    frequency:    1.1201535583
  - # 3
    frequency:    1.5388586688
  - # 4
    frequency:    1.6363972019
  - # 5
    frequency:    1.7255145263
  - # 6
    frequency:    1.9639438545
  - # 7
    frequency:    2.0257986336
  - # 8
    frequency:    2.1643328113
  - # 9
    frequency:    2.8498870218
  - # 10
    frequency:    3.4416075359
  - # 11
    frequency:    4.7982767500
  - # 12
    frequency:    5.1117921667
  - # 13
    frequency:    5.3619309386
  - # 14
    frequency:    6.2233979380
  - # 15
    frequency:    6.5750989783
  - # 16
    frequency:    7.5306936932
  - # 17
    frequency:    9.7886247776
  - # 18
    frequency:   10.4293275545
  - # 19
    frequency:   10.8838577193
  - # 20
    frequency:   12.0302223265
  - # 21
    frequency:   15.7156146813
  - # 22
    frequency:   16.3740848236
  - # 23
    frequency:   17.6540988518
  - # 24
    frequency:   18.3141346012

- q-position: [   -0.4352307,   -0.4352307,    0.3373705 ]
  distance:    0.0229988
  band:
  - # 1
    frequency:    0.5747523618
  - # 2
    frequency:    1.1181841170
  - # 3
    frequency:    1.5403039801
  - # 4
    frequency:    1.6397787671
  - # 5
    frequency:    1.7120765534
  - # 6
    frequency:    1.9635250560
  - # 7
    frequency:    2.0238527118
  - # 8
    frequency:    2.1636325457
  - # 9
    frequency:    2.8500751318
  - # 10
    frequency:    3.4456065314
  - # 11
    frequency:    4.7821512248
  - # 12
    frequency:    5.1204599436
  - # 13
    frequency:    5.3664414490
  - # 14
    frequency:    6.2215087065
  - # 15
    frequency:    6.5862354424
  - # 16
    frequency:    7.5242938724
  - # 17
    frequency:    9.7917039945
  - # 18
    frequency:   10.4276609230
  - # 19
    frequency:   10.8727303668
  - # 20
    frequency:   12.0249529341
  - # 21
    frequency:   15.7207823852
  - # 22
    frequency:   16.3699906824
  - # 23
    frequency:   17.6631611923
  - # 24
    frequency:   18.3141098737

- q-position: [   -0.4296508,   -0.4296508,    0.3330452 ]
  distance:    0.0240442
  band:
  - # 1
    frequency:    0.5699555743
  - # 2
    frequency:    1.1161274962
  - # 3
    frequency:    1.5405950205
  - # 4
    frequency:    1.6432201815
  - # 5
    frequency:    1.6994748147
  - # 6
    frequency:    1.9630705211
  - # 7
    frequency:    2.0218562487
  - # 8
    frequency:    2.1628448816
  - # 9
    frequency:    2.8499084090
  - # 10
    frequency:    3.4500053217
  - # 11
    frequency:    4.7660322239
  - # 12
    frequency:    5.1295187366
  - # 13
    frequency:    5.3709488140
  - # 14
    frequency:    6.2190893369
  - # 15
    frequency:    6.5979452348
  - # 16
    frequency:    7.5177330908
  - # 17
    frequency:    9.7947209171
  - # 18
    frequency:   10.4260173229
  - # 19
    frequency:   10.8610010443
  - # 20
    frequency:   12.0201570602
  - # 21
    frequency:   15.7262906235
  - # 22
    frequency:   16.3658464659
  - # 23
    frequency:   17.6722622427
  - # 24
    frequency:   18.3139585746

- q-position: [   -0.4240709,   -0.4240709,    0.3287200 ]
  distance:    0.0250896
  band:
  - # 1
    frequency:    0.5651691481
  - # 2
    frequency:    1.1139791978
  - # 3
    frequency:    1.5394949964
  - # 4
    frequency:    1.6467171172
  - # 5
    frequency:    1.6879363883
  - # 6
    frequency:    1.9625797143
  - # 7
    frequency:    2.0198149021
  - # 8
    frequency:    2.1619866346
  - # 9
    frequency:    2.8493726220
  - # 10
    frequency:    3.4548036266
  - # 11
    frequency:    4.7499626189
  - # 12
    frequency:    5.1389616440
  - # 13
    frequency:    5.3754563773
  - # 14
    frequency:    6.2162080391
  - # 15
    frequency:    6.6101289359
  - # 16
    frequency:    7.5110118881
  - # 17
    frequency:    9.7976730815
  - # 18
    frequency:   10.4244007467
  - # 19
    frequency:   10.8487031547
  - # 20
    frequency:   12.0158237606
  - # 21
    frequency:   15.7321316586
  - # 22
    frequency:   16.3616573110
  - # 23
    frequency:   17.6813802629
  - # 24
    frequency:   18.3137056909

- q-position: [   -0.4184910,   -0.4184910,    0.3243947 ]
  distance:    0.0261350
  band:
  - # 1
    frequency:    0.5603909418
  - # 2
    frequency:    1.1117327803
  - # 3
    frequency:    1.5367756652
  - # 4
    frequency:    1.6502652682
  - # 5
    frequency:    1.6776790715
  - # 6
    frequency:    1.9620517001
  - # 7
    frequency:    2.0177348673
  - # 8
    frequency:    2.1610772331
  - # 9
    frequency:    2.8484546245
  - # 10
    frequency:    3.4600005336
  - # 11
    frequency:    4.7339818681
  - # 12
    frequency:    5.1487815041
  - # 13
    frequency:    5.3799673157
  - # 14
    frequency:    6.2129294721
  - # 15
    frequency:    6.6226949345
  - # 16
    frequency:    7.5041307916
  - # 17
    frequency:    9.8005582159
  - # 18
    frequency:   10.4228150731
  - # 19
    frequency:   10.8358708310
  - # 20
    frequency:   12.0119409899
  - # 21
    frequency:   15.7382972574
  - # 22
    frequency:   16.3574284499
  - # 23
    frequency:   17.6904919361
  - # 24
    frequency:   18.3133778925

- q-position: [   -0.4129111,   -0.4129111,    0.3200694 ]
  distance:    0.0271804
  band:
  - # 1
    frequency:    0.5556182192
  - # 2
    frequency:    1.1093795163
  - # 3
    frequency:    1.5322647155
  - # 4
    frequency:    1.6538603534
  - # 5
    frequency:    1.6688646891
  - # 6
    frequency:    1.9614850784
  - # 7
    frequency:    2.0156229231
  - # 8
    frequency:    2.1601383121
  - # 9
    frequency:    2.8471426103
  - # 10
    frequency:    3.4655943731
  - # 11
    frequency:    4.7181261952
  - # 12
    frequency:    5.1589709104
  - # 13
    frequency:    5.3844846020
  - # 14
    frequency:    6.2093135189
  - # 15
    frequency:    6.6355604577
  - # 16
    frequency:    7.4970903193
  - # 17
    frequency:    9.8033742478
  - # 18
    frequency:   10.4212640500
  - # 19
    frequency:   10.8225386028
  - # 20
    frequency:   12.0084958329
  - # 21
    frequency:   15.7447786831
  - # 22
    frequency:   16.3531652737
  - # 23
    frequency:   17.6995722575
  - # 24
    frequency:   18.3130035688

- q-position: [   -0.4073313,   -0.4073313,    0.3157442 ]
  distance:    0.0282258
  band:
  - # 1
    frequency:    0.5508476870
  - # 2
    frequency:    1.1069080085
  - # 3
    frequency:    1.5258987578
  - # 4
    frequency:    1.6574981200
  - # 5
    frequency:    1.6615468498
  - # 6