# epsilon and Z* of atoms 1 2 3 5 7
   7.11710803    0.00000000    0.00000000    0.00000000    5.79352614   -0.12411367    0.00000000   -0.12411346    6.48689525 
  -0.04962722    0.00000000    0.00000000    0.00000000    1.54565657   -0.70063136    0.00000000   -0.82533483    0.51858689 
   0.22557090    0.00000000    0.00000000    0.00000000    1.80722016    0.12781708    0.00000000    0.08336079    0.13293162 
   5.33852862    0.00000000    0.00000000    0.00000000    2.47091333    0.05396185    0.00000000    0.24533643    4.85705856 
  -2.42802035    0.00000000    0.00000000    0.00000000   -2.16392764   -0.08398731    0.00000000   -0.48261630   -2.84680821 
  -2.99848010    0.00000000    0.00000000    0.00000000   -1.98342406    0.31643260    0.00000000    0.60826689   -2.33600961 
